TITLE = "rho_surf"
VARIABLES = "X", "Y", "Z", "Real", "Imaginary"
ZONE I=25, J=25, K=75, F=POINT
0.000e+00 0.000e+00 0.000e+00 1.000e+00 0.000e+00
1.889e-01 0.000e+00 0.000e+00 1.000e+00 0.000e+00
3.777e-01 0.000e+00 0.000e+00 1.000e+00 0.000e+00
5.666e-01 0.000e+00 0.000e+00 1.000e+00 0.000e+00
7.555e-01 0.000e+00 0.000e+00 1.000e+00 0.000e+00
9.443e-01 0.000e+00 0.000e+00 1.000e+00 0.000e+00
1.133e+00 0.000e+00 0.000e+00 1.000e+00 0.000e+00
1.322e+00 0.000e+00 0.000e+00 1.000e+00 0.000e+00
1.511e+00 0.000e+00 0.000e+00 1.000e+00 0.000e+00
1.700e+00 0.000e+00 0.000e+00 1.000e+00 0.000e+00
1.889e+00 0.000e+00 0.000e+00 1.000e+00 0.000e+00
2.078e+00 0.000e+00 0.000e+00 1.000e+00 0.000e+00
2.266e+00 0.000e+00 0.000e+00 1.000e+00 0.000e+00
2.455e+00 0.000e+00 0.000e+00 1.000e+00 0.000e+00
2.644e+00 0.000e+00 0.000e+00 1.000e+00 0.000e+00
2.833e+00 0.000e+00 0.000e+00 1.000e+00 0.000e+00
3.022e+00 0.000e+00 0.000e+00 1.000e+00 0.000e+00
3.211e+00 0.000e+00 0.000e+00 1.000e+00 0.000e+00
3.400e+00 0.000e+00 0.000e+00 1.000e+00 0.000e+00
3.589e+00 0.000e+00 0.000e+00 1.000e+00 0.000e+00
3.777e+00 0.000e+00 0.000e+00 1.000e+00 0.000e+00
3.966e+00 0.000e+00 0.000e+00 1.000e+00 0.000e+00
4.155e+00 0.000e+00 0.000e+00 1.000e+00 0.000e+00
4.344e+00 0.000e+00 0.000e+00 1.000e+00 0.000e+00
4.533e+00 0.000e+00 0.000e+00 1.000e+00 0.000e+00
0.000e+00 1.889e-01 0.000e+00 1.000e+00 0.000e+00
1.889e-01 1.889e-01 0.000e+00 1.000e+00 0.000e+00
3.777e-01 1.889e-01 0.000e+00 1.000e+00 0.000e+00
5.666e-01 1.889e-01 0.000e+00 1.000e+00 0.000e+00
7.555e-01 1.889e-01 0.000e+00 1.000e+00 0.000e+00
9.443e-01 1.889e-01 0.000e+00 1.000e+00 0.000e+00
1.133e+00 1.889e-01 0.000e+00 1.000e+00 0.000e+00
1.322e+00 1.889e-01 0.000e+00 1.000e+00 0.000e+00
1.511e+00 1.889e-01 0.000e+00 1.000e+00 0.000e+00
1.700e+00 1.889e-01 0.000e+00 1.000e+00 0.000e+00
1.889e+00 1.889e-01 0.000e+00 1.000e+00 0.000e+00
2.078e+00 1.889e-01 0.000e+00 1.000e+00 0.000e+00
2.266e+00 1.889e-01 0.000e+00 1.000e+00 0.000e+00
2.455e+00 1.889e-01 0.000e+00 1.000e+00 0.000e+00
2.644e+00 1.889e-01 0.000e+00 1.000e+00 0.000e+00
2.833e+00 1.889e-01 0.000e+00 1.000e+00 0.000e+00
3.022e+00 1.889e-01 0.000e+00 1.000e+00 0.000e+00
3.211e+00 1.889e-01 0.000e+00 1.000e+00 0.000e+00
3.400e+00 1.889e-01 0.000e+00 1.000e+00 0.000e+00
3.589e+00 1.889e-01 0.000e+00 1.000e+00 0.000e+00
3.777e+00 1.889e-01 0.000e+00 1.000e+00 0.000e+00
3.966e+00 1.889e-01 0.000e+00 1.000e+00 0.000e+00
4.155e+00 1.889e-01 0.000e+00 1.000e+00 0.000e+00
4.344e+00 1.889e-01 0.000e+00 1.000e+00 0.000e+00
4.533e+00 1.889e-01 0.000e+00 1.000e+00 0.000e+00
0.000e+00 3.777e-01 0.000e+00 1.000e+00 0.000e+00
1.889e-01 3.777e-01 0.000e+00 1.000e+00 0.000e+00
3.777e-01 3.777e-01 0.000e+00 1.000e+00 0.000e+00
5.666e-01 3.777e-01 0.000e+00 1.000e+00 0.000e+00
7.555e-01 3.777e-01 0.000e+00 1.000e+00 0.000e+00
9.443e-01 3.777e-01 0.000e+00 1.000e+00 0.000e+00
1.133e+00 3.777e-01 0.000e+00 1.000e+00 0.000e+00
1.322e+00 3.777e-01 0.000e+00 1.000e+00 0.000e+00
1.511e+00 3.777e-01 0.000e+00 1.000e+00 0.000e+00
1.700e+00 3.777e-01 0.000e+00 1.000e+00 0.000e+00
1.889e+00 3.777e-01 0.000e+00 1.000e+00 0.000e+00
2.078e+00 3.777e-01 0.000e+00 1.000e+00 0.000e+00
2.266e+00 3.777e-01 0.000e+00 1.000e+00 0.000e+00
2.455e+00 3.777e-01 0.000e+00 1.000e+00 0.000e+00
2.644e+00 3.777e-01 0.000e+00 1.000e+00 0.000e+00
2.833e+00 3.777e-01 0.000e+00 1.000e+00 0.000e+00
3.022e+00 3.777e-01 0.000e+00 1.000e+00 0.000e+00
3.211e+00 3.777e-01 0.000e+00 1.000e+00 0.000e+00
3.400e+00 3.777e-01 0.000e+00 1.000e+00 0.000e+00
3.589e+00 3.777e-01 0.000e+00 1.000e+00 0.000e+00
3.777e+00 3.777e-01 0.000e+00 1.000e+00 0.000e+00
3.966e+00 3.777e-01 0.000e+00 1.000e+00 0.000e+00
4.155e+00 3.777e-01 0.000e+00 1.000e+00 0.000e+00
4.344e+00 3.777e-01 0.000e+00 1.000e+00 0.000e+00
4.533e+00 3.777e-01 0.000e+00 1.000e+00 0.000e+00
0.000e+00 5.666e-01 0.000e+00 1.000e+00 0.000e+00
1.889e-01 5.666e-01 0.000e+00 1.000e+00 0.000e+00
3.777e-01 5.666e-01 0.000e+00 1.000e+00 0.000e+00
5.666e-01 5.666e-01 0.000e+00 1.000e+00 0.000e+00
7.555e-01 5.666e-01 0.000e+00 1.000e+00 0.000e+00
9.443e-01 5.666e-01 0.000e+00 1.000e+00 0.000e+00
1.133e+00 5.666e-01 0.000e+00 1.000e+00 0.000e+00
1.322e+00 5.666e-01 0.000e+00 1.000e+00 0.000e+00
1.511e+00 5.666e-01 0.000e+00 1.000e+00 0.000e+00
1.700e+00 5.666e-01 0.000e+00 1.000e+00 0.000e+00
1.889e+00 5.666e-01 0.000e+00 1.000e+00 0.000e+00
2.078e+00 5.666e-01 0.000e+00 1.000e+00 0.000e+00
2.266e+00 5.666e-01 0.000e+00 1.000e+00 0.000e+00
2.455e+00 5.666e-01 0.000e+00 1.000e+00 0.000e+00
2.644e+00 5.666e-01 0.000e+00 1.000e+00 0.000e+00
2.833e+00 5.666e-01 0.000e+00 1.000e+00 0.000e+00
3.022e+00 5.666e-01 0.000e+00 1.000e+00 0.000e+00
3.211e+00 5.666e-01 0.000e+00 1.000e+00 0.000e+00
3.400e+00 5.666e-01 0.000e+00 1.000e+00 0.000e+00
3.589e+00 5.666e-01 0.000e+00 1.000e+00 0.000e+00
3.777e+00 5.666e-01 0.000e+00 1.000e+00 0.000e+00
3.966e+00 5.666e-01 0.000e+00 1.000e+00 0.000e+00
4.155e+00 5.666e-01 0.000e+00 1.000e+00 0.000e+00
4.344e+00 5.666e-01 0.000e+00 1.000e+00 0.000e+00
4.533e+00 5.666e-01 0.000e+00 1.000e+00 0.000e+00
0.000e+00 7.555e-01 0.000e+00 1.000e+00 0.000e+00
1.889e-01 7.555e-01 0.000e+00 1.000e+00 0.000e+00
3.777e-01 7.555e-01 0.000e+00 1.000e+00 0.000e+00
5.666e-01 7.555e-01 0.000e+00 1.000e+00 0.000e+00
7.555e-01 7.555e-01 0.000e+00 1.000e+00 0.000e+00
9.443e-01 7.555e-01 0.000e+00 1.000e+00 0.000e+00
1.133e+00 7.555e-01 0.000e+00 1.000e+00 0.000e+00
1.322e+00 7.555e-01 0.000e+00 1.000e+00 0.000e+00
1.511e+00 7.555e-01 0.000e+00 1.000e+00 0.000e+00
1.700e+00 7.555e-01 0.000e+00 1.000e+00 0.000e+00
1.889e+00 7.555e-01 0.000e+00 1.000e+00 0.000e+00
2.078e+00 7.555e-01 0.000e+00 1.000e+00 0.000e+00
2.266e+00 7.555e-01 0.000e+00 1.000e+00 0.000e+00
2.455e+00 7.555e-01 0.000e+00 1.000e+00 0.000e+00
2.644e+00 7.555e-01 0.000e+00 1.000e+00 0.000e+00
2.833e+00 7.555e-01 0.000e+00 1.000e+00 0.000e+00
3.022e+00 7.555e-01 0.000e+00 1.000e+00 0.000e+00
3.211e+00 7.555e-01 0.000e+00 1.000e+00 0.000e+00
3.400e+00 7.555e-01 0.000e+00 1.000e+00 0.000e+00
3.589e+00 7.555e-01 0.000e+00 1.000e+00 0.000e+00
3.777e+00 7.555e-01 0.000e+00 1.000e+00 0.000e+00
3.966e+00 7.555e-01 0.000e+00 1.000e+00 0.000e+00
4.155e+00 7.555e-01 0.000e+00 1.000e+00 0.000e+00
4.344e+00 7.555e-01 0.000e+00 1.000e+00 0.000e+00
4.533e+00 7.555e-01 0.000e+00 1.000e+00 0.000e+00
0.000e+00 9.443e-01 0.000e+00 1.000e+00 0.000e+00
1.889e-01 9.443e-01 0.000e+00 1.000e+00 0.000e+00
3.777e-01 9.443e-01 0.000e+00 1.000e+00 0.000e+00
5.666e-01 9.443e-01 0.000e+00 1.000e+00 0.000e+00
7.555e-01 9.443e-01 0.000e+00 1.000e+00 0.000e+00
9.443e-01 9.443e-01 0.000e+00 1.000e+00 0.000e+00
1.133e+00 9.443e-01 0.000e+00 1.000e+00 0.000e+00
1.322e+00 9.443e-01 0.000e+00 1.000e+00 0.000e+00
1.511e+00 9.443e-01 0.000e+00 1.000e+00 0.000e+00
1.700e+00 9.443e-01 0.000e+00 1.000e+00 0.000e+00
1.889e+00 9.443e-01 0.000e+00 1.000e+00 0.000e+00
2.078e+00 9.443e-01 0.000e+00 1.000e+00 0.000e+00
2.266e+00 9.443e-01 0.000e+00 1.000e+00 0.000e+00
2.455e+00 9.443e-01 0.000e+00 1.000e+00 0.000e+00
2.644e+00 9.443e-01 0.000e+00 1.000e+00 0.000e+00
2.833e+00 9.443e-01 0.000e+00 1.000e+00 0.000e+00
3.022e+00 9.443e-01 0.000e+00 1.000e+00 0.000e+00
3.211e+00 9.443e-01 0.000e+00 1.000e+00 0.000e+00
3.400e+00 9.443e-01 0.000e+00 1.000e+00 0.000e+00
3.589e+00 9.443e-01 0.000e+00 1.000e+00 0.000e+00
3.777e+00 9.443e-01 0.000e+00 1.000e+00 0.000e+00
3.966e+00 9.443e-01 0.000e+00 1.000e+00 0.000e+00
4.155e+00 9.443e-01 0.000e+00 1.000e+00 0.000e+00
4.344e+00 9.443e-01 0.000e+00 1.000e+00 0.000e+00
4.533e+00 9.443e-01 0.000e+00 1.000e+00 0.000e+00
0.000e+00 1.133e+00 0.000e+00 1.000e+00 0.000e+00
1.889e-01 1.133e+00 0.000e+00 1.000e+00 0.000e+00
3.777e-01 1.133e+00 0.000e+00 1.000e+00 0.000e+00
5.666e-01 1.133e+00 0.000e+00 1.000e+00 0.000e+00
7.555e-01 1.133e+00 0.000e+00 1.000e+00 0.000e+00
9.443e-01 1.133e+00 0.000e+00 1.000e+00 0.000e+00
1.133e+00 1.133e+00 0.000e+00 1.000e+00 0.000e+00
1.322e+00 1.133e+00 0.000e+00 1.000e+00 0.000e+00
1.511e+00 1.133e+00 0.000e+00 1.000e+00 0.000e+00
1.700e+00 1.133e+00 0.000e+00 1.000e+00 0.000e+00
1.889e+00 1.133e+00 0.000e+00 1.000e+00 0.000e+00
2.078e+00 1.133e+00 0.000e+00 1.000e+00 0.000e+00
2.266e+00 1.133e+00 0.000e+00 1.000e+00 0.000e+00
2.455e+00 1.133e+00 0.000e+00 1.000e+00 0.000e+00
2.644e+00 1.133e+00 0.000e+00 1.000e+00 0.000e+00
2.833e+00 1.133e+00 0.000e+00 1.000e+00 0.000e+00
3.022e+00 1.133e+00 0.000e+00 1.000e+00 0.000e+00
3.211e+00 1.133e+00 0.000e+00 1.000e+00 0.000e+00
3.400e+00 1.133e+00 0.000e+00 1.000e+00 0.000e+00
3.589e+00 1.133e+00 0.000e+00 1.000e+00 0.000e+00
3.777e+00 1.133e+00 0.000e+00 1.000e+00 0.000e+00
3.966e+00 1.133e+00 0.000e+00 1.000e+00 0.000e+00
4.155e+00 1.133e+00 0.000e+00 1.000e+00 0.000e+00
4.344e+00 1.133e+00 0.000e+00 1.000e+00 0.000e+00
4.533e+00 1.133e+00 0.000e+00 1.000e+00 0.000e+00
0.000e+00 1.322e+00 0.000e+00 1.000e+00 0.000e+00
1.889e-01 1.322e+00 0.000e+00 1.000e+00 0.000e+00
3.777e-01 1.322e+00 0.000e+00 1.000e+00 0.000e+00
5.666e-01 1.322e+00 0.000e+00 1.000e+00 0.000e+00
7.555e-01 1.322e+00 0.000e+00 1.000e+00 0.000e+00
9.443e-01 1.322e+00 0.000e+00 1.000e+00 0.000e+00
1.133e+00 1.322e+00 0.000e+00 1.000e+00 0.000e+00
1.322e+00 1.322e+00 0.000e+00 1.000e+00 0.000e+00
1.511e+00 1.322e+00 0.000e+00 1.000e+00 0.000e+00
1.700e+00 1.322e+00 0.000e+00 1.000e+00 0.000e+00
1.889e+00 1.322e+00 0.000e+00 1.000e+00 0.000e+00
2.078e+00 1.322e+00 0.000e+00 1.000e+00 0.000e+00
2.266e+00 1.322e+00 0.000e+00 1.000e+00 0.000e+00
2.455e+00 1.322e+00 0.000e+00 1.000e+00 0.000e+00
2.644e+00 1.322e+00 0.000e+00 1.000e+00 0.000e+00
2.833e+00 1.322e+00 0.000e+00 1.000e+00 0.000e+00
3.022e+00 1.322e+00 0.000e+00 1.000e+00 0.000e+00
3.211e+00 1.322e+00 0.000e+00 1.000e+00 0.000e+00
3.400e+00 1.322e+00 0.000e+00 1.000e+00 0.000e+00
3.589e+00 1.322e+00 0.000e+00 1.000e+00 0.000e+00
3.777e+00 1.322e+00 0.000e+00 1.000e+00 0.000e+00
3.966e+00 1.322e+00 0.000e+00 1.000e+00 0.000e+00
4.155e+00 1.322e+00 0.000e+00 1.000e+00 0.000e+00
4.344e+00 1.322e+00 0.000e+00 1.000e+00 0.000e+00
4.533e+00 1.322e+00 0.000e+00 1.000e+00 0.000e+00
0.000e+00 1.511e+00 0.000e+00 1.000e+00 0.000e+00
1.889e-01 1.511e+00 0.000e+00 1.000e+00 0.000e+00
3.777e-01 1.511e+00 0.000e+00 1.000e+00 0.000e+00
5.666e-01 1.511e+00 0.000e+00 1.000e+00 0.000e+00
7.555e-01 1.511e+00 0.000e+00 1.000e+00 0.000e+00
9.443e-01 1.511e+00 0.000e+00 1.000e+00 0.000e+00
1.133e+00 1.511e+00 0.000e+00 1.000e+00 0.000e+00
1.322e+00 1.511e+00 0.000e+00 1.000e+00 0.000e+00
1.511e+00 1.511e+00 0.000e+00 1.000e+00 0.000e+00
1.700e+00 1.511e+00 0.000e+00 1.000e+00 0.000e+00
1.889e+00 1.511e+00 0.000e+00 1.000e+00 0.000e+00
2.078e+00 1.511e+00 0.000e+00 1.000e+00 0.000e+00
2.266e+00 1.511e+00 0.000e+00 1.000e+00 0.000e+00
2.455e+00 1.511e+00 0.000e+00 1.000e+00 0.000e+00
2.644e+00 1.511e+00 0.000e+00 1.000e+00 0.000e+00
2.833e+00 1.511e+00 0.000e+00 1.000e+00 0.000e+00
3.022e+00 1.511e+00 0.000e+00 1.000e+00 0.000e+00
3.211e+00 1.511e+00 0.000e+00 1.000e+00 0.000e+00
3.400e+00 1.511e+00 0.000e+00 1.000e+00 0.000e+00
3.589e+00 1.511e+00 0.000e+00 1.000e+00 0.000e+00
3.777e+00 1.511e+00 0.000e+00 1.000e+00 0.000e+00
3.966e+00 1.511e+00 0.000e+00 1.000e+00 0.000e+00
4.155e+00 1.511e+00 0.000e+00 1.000e+00 0.000e+00
4.344e+00 1.511e+00 0.000e+00 1.000e+00 0.000e+00
4.533e+00 1.511e+00 0.000e+00 1.000e+00 0.000e+00
0.000e+00 1.700e+00 0.000e+00 1.000e+00 0.000e+00
1.889e-01 1.700e+00 0.000e+00 1.000e+00 0.000e+00
3.777e-01 1.700e+00 0.000e+00 1.000e+00 0.000e+00
5.666e-01 1.700e+00 0.000e+00 1.000e+00 0.000e+00
7.555e-01 1.700e+00 0.000e+00 1.000e+00 0.000e+00
9.443e-01 1.700e+00 0.000e+00 1.000e+00 0.000e+00
1.133e+00 1.700e+00 0.000e+00 1.000e+00 0.000e+00
1.322e+00 1.700e+00 0.000e+00 1.000e+00 0.000e+00
1.511e+00 1.700e+00 0.000e+00 1.000e+00 0.000e+00
1.700e+00 1.700e+00 0.000e+00 1.000e+00 0.000e+00
1.889e+00 1.700e+00 0.000e+00 1.000e+00 0.000e+00
2.078e+00 1.700e+00 0.000e+00 1.000e+00 0.000e+00
2.266e+00 1.700e+00 0.000e+00 1.000e+00 0.000e+00
2.455e+00 1.700e+00 0.000e+00 1.000e+00 0.000e+00
2.644e+00 1.700e+00 0.000e+00 1.000e+00 0.000e+00
2.833e+00 1.700e+00 0.000e+00 1.000e+00 0.000e+00
3.022e+00 1.700e+00 0.000e+00 1.000e+00 0.000e+00
3.211e+00 1.700e+00 0.000e+00 1.000e+00 0.000e+00
3.400e+00 1.700e+00 0.000e+00 1.000e+00 0.000e+00
3.589e+00 1.700e+00 0.000e+00 1.000e+00 0.000e+00
3.777e+00 1.700e+00 0.000e+00 1.000e+00 0.000e+00
3.966e+00 1.700e+00 0.000e+00 1.000e+00 0.000e+00
4.155e+00 1.700e+00 0.000e+00 1.000e+00 0.000e+00
4.344e+00 1.700e+00 0.000e+00 1.000e+00 0.000e+00
4.533e+00 1.700e+00 0.000e+00 1.000e+00 0.000e+00
0.000e+00 1.889e+00 0.000e+00 1.000e+00 0.000e+00
1.889e-01 1.889e+00 0.000e+00 1.000e+00 0.000e+00
3.777e-01 1.889e+00 0.000e+00 1.000e+00 0.000e+00
5.666e-01 1.889e+00 0.000e+00 1.000e+00 0.000e+00
7.555e-01 1.889e+00 0.000e+00 1.000e+00 0.000e+00
9.443e-01 1.889e+00 0.000e+00 1.000e+00 0.000e+00
1.133e+00 1.889e+00 0.000e+00 1.000e+00 0.000e+00
1.322e+00 1.889e+00 0.000e+00 1.000e+00 0.000e+00
1.511e+00 1.889e+00 0.000e+00 1.000e+00 0.000e+00
1.700e+00 1.889e+00 0.000e+00 1.000e+00 0.000e+00
1.889e+00 1.889e+00 0.000e+00 1.000e+00 0.000e+00
2.078e+00 1.889e+00 0.000e+00 1.000e+00 0.000e+00
2.266e+00 1.889e+00 0.000e+00 1.000e+00 0.000e+00
2.455e+00 1.889e+00 0.000e+00 1.000e+00 0.000e+00
2.644e+00 1.889e+00 0.000e+00 1.000e+00 0.000e+00
2.833e+00 1.889e+00 0.000e+00 1.000e+00 0.000e+00
3.022e+00 1.889e+00 0.000e+00 1.000e+00 0.000e+00
3.211e+00 1.889e+00 0.000e+00 1.000e+00 0.000e+00
3.400e+00 1.889e+00 0.000e+00 1.000e+00 0.000e+00
3.589e+00 1.889e+00 0.000e+00 1.000e+00 0.000e+00
3.777e+00 1.889e+00 0.000e+00 1.000e+00 0.000e+00
3.966e+00 1.889e+00 0.000e+00 1.000e+00 0.000e+00
4.155e+00 1.889e+00 0.000e+00 1.000e+00 0.000e+00
4.344e+00 1.889e+00 0.000e+00 1.000e+00 0.000e+00
4.533e+00 1.889e+00 0.000e+00 1.000e+00 0.000e+00
0.000e+00 2.078e+00 0.000e+00 1.000e+00 0.000e+00
1.889e-01 2.078e+00 0.000e+00 1.000e+00 0.000e+00
3.777e-01 2.078e+00 0.000e+00 1.000e+00 0.000e+00
5.666e-01 2.078e+00 0.000e+00 1.000e+00 0.000e+00
7.555e-01 2.078e+00 0.000e+00 1.000e+00 0.000e+00
9.443e-01 2.078e+00 0.000e+00 1.000e+00 0.000e+00
1.133e+00 2.078e+00 0.000e+00 1.000e+00 0.000e+00
1.322e+00 2.078e+00 0.000e+00 1.000e+00 0.000e+00
1.511e+00 2.078e+00 0.000e+00 1.000e+00 0.000e+00
1.700e+00 2.078e+00 0.000e+00 1.000e+00 0.000e+00
1.889e+00 2.078e+00 0.000e+00 1.000e+00 0.000e+00
2.078e+00 2.078e+00 0.000e+00 1.000e+00 0.000e+00
2.266e+00 2.078e+00 0.000e+00 1.000e+00 0.000e+00
2.455e+00 2.078e+00 0.000e+00 1.000e+00 0.000e+00
2.644e+00 2.078e+00 0.000e+00 1.000e+00 0.000e+00
2.833e+00 2.078e+00 0.000e+00 1.000e+00 0.000e+00
3.022e+00 2.078e+00 0.000e+00 1.000e+00 0.000e+00
3.211e+00 2.078e+00 0.000e+00 1.000e+00 0.000e+00
3.400e+00 2.078e+00 0.000e+00 1.000e+00 0.000e+00
3.589e+00 2.078e+00 0.000e+00 1.000e+00 0.000e+00
3.777e+00 2.078e+00 0.000e+00 1.000e+00 0.000e+00
3.966e+00 2.078e+00 0.000e+00 1.000e+00 0.000e+00
4.155e+00 2.078e+00 0.000e+00 1.000e+00 0.000e+00
4.344e+00 2.078e+00 0.000e+00 1.000e+00 0.000e+00
4.533e+00 2.078e+00 0.000e+00 1.000e+00 0.000e+00
0.000e+00 2.266e+00 0.000e+00 1.000e+00 0.000e+00
1.889e-01 2.266e+00 0.000e+00 1.000e+00 0.000e+00
3.777e-01 2.266e+00 0.000e+00 1.000e+00 0.000e+00
5.666e-01 2.266e+00 0.000e+00 1.000e+00 0.000e+00
7.555e-01 2.266e+00 0.000e+00 1.000e+00 0.000e+00
9.443e-01 2.266e+00 0.000e+00 1.000e+00 0.000e+00
1.133e+00 2.266e+00 0.000e+00 1.000e+00 0.000e+00
1.322e+00 2.266e+00 0.000e+00 1.000e+00 0.000e+00
1.511e+00 2.266e+00 0.000e+00 1.000e+00 0.000e+00
1.700e+00 2.266e+00 0.000e+00 1.000e+00 0.000e+00
1.889e+00 2.266e+00 0.000e+00 1.000e+00 0.000e+00
2.078e+00 2.266e+00 0.000e+00 1.000e+00 0.000e+00
2.266e+00 2.266e+00 0.000e+00 1.000e+00 0.000e+00
2.455e+00 2.266e+00 0.000e+00 1.000e+00 0.000e+00
2.644e+00 2.266e+00 0.000e+00 1.000e+00 0.000e+00
2.833e+00 2.266e+00 0.000e+00 1.000e+00 0.000e+00
3.022e+00 2.266e+00 0.000e+00 1.000e+00 0.000e+00
3.211e+00 2.266e+00 0.000e+00 1.000e+00 0.000e+00
3.400e+00 2.266e+00 0.000e+00 1.000e+00 0.000e+00
3.589e+00 2.266e+00 0.000e+00 1.000e+00 0.000e+00
3.777e+00 2.266e+00 0.000e+00 1.000e+00 0.000e+00
3.966e+00 2.266e+00 0.000e+00 1.000e+00 0.000e+00
4.155e+00 2.266e+00 0.000e+00 1.000e+00 0.000e+00
4.344e+00 2.266e+00 0.000e+00 1.000e+00 0.000e+00
4.533e+00 2.266e+00 0.000e+00 1.000e+00 0.000e+00
0.000e+00 2.455e+00 0.000e+00 1.000e+00 0.000e+00
1.889e-01 2.455e+00 0.000e+00 1.000e+00 0.000e+00
3.777e-01 2.455e+00 0.000e+00 1.000e+00 0.000e+00
5.666e-01 2.455e+00 0.000e+00 1.000e+00 0.000e+00
7.555e-01 2.455e+00 0.000e+00 1.000e+00 0.000e+00
9.443e-01 2.455e+00 0.000e+00 1.000e+00 0.000e+00
1.133e+00 2.455e+00 0.000e+00 1.000e+00 0.000e+00
1.322e+00 2.455e+00 0.000e+00 1.000e+00 0.000e+00
1.511e+00 2.455e+00 0.000e+00 1.000e+00 0.000e+00
1.700e+00 2.455e+00 0.000e+00 1.000e+00 0.000e+00
1.889e+00 2.455e+00 0.000e+00 1.000e+00 0.000e+00
2.078e+00 2.455e+00 0.000e+00 1.000e+00 0.000e+00
2.266e+00 2.455e+00 0.000e+00 1.000e+00 0.000e+00
2.455e+00 2.455e+00 0.000e+00 1.000e+00 0.000e+00
2.644e+00 2.455e+00 0.000e+00 1.000e+00 0.000e+00
2.833e+00 2.455e+00 0.000e+00 1.000e+00 0.000e+00
3.022e+00 2.455e+00 0.000e+00 1.000e+00 0.000e+00
3.211e+00 2.455e+00 0.000e+00 1.000e+00 0.000e+00
3.400e+00 2.455e+00 0.000e+00 1.000e+00 0.000e+00
3.589e+00 2.455e+00 0.000e+00 1.000e+00 0.000e+00
3.777e+00 2.455e+00 0.000e+00 1.000e+00 0.000e+00
3.966e+00 2.455e+00 0.000e+00 1.000e+00 0.000e+00
4.155e+00 2.455e+00 0.000e+00 1.000e+00 0.000e+00
4.344e+00 2.455e+00 0.000e+00 1.000e+00 0.000e+00
4.533e+00 2.455e+00 0.000e+00 1.000e+00 0.000e+00
0.000e+00 2.644e+00 0.000e+00 1.000e+00 0.000e+00
1.889e-01 2.644e+00 0.000e+00 1.000e+00 0.000e+00
3.777e-01 2.644e+00 0.000e+00 1.000e+00 0.000e+00
5.666e-01 2.644e+00 0.000e+00 1.000e+00 0.000e+00
7.555e-01 2.644e+00 0.000e+00 1.000e+00 0.000e+00
9.443e-01 2.644e+00 0.000e+00 1.000e+00 0.000e+00
1.133e+00 2.644e+00 0.000e+00 1.000e+00 0.000e+00
1.322e+00 2.644e+00 0.000e+00 1.000e+00 0.000e+00
1.511e+00 2.644e+00 0.000e+00 1.000e+00 0.000e+00
1.700e+00 2.644e+00 0.000e+00 1.000e+00 0.000e+00
1.889e+00 2.644e+00 0.000e+00 1.000e+00 0.000e+00
2.078e+00 2.644e+00 0.000e+00 1.000e+00 0.000e+00
2.266e+00 2.644e+00 0.000e+00 1.000e+00 0.000e+00
2.455e+00 2.644e+00 0.000e+00 1.000e+00 0.000e+00
2.644e+00 2.644e+00 0.000e+00 1.000e+00 0.000e+00
2.833e+00 2.644e+00 0.000e+00 1.000e+00 0.000e+00
3.022e+00 2.644e+00 0.000e+00 1.000e+00 0.000e+00
3.211e+00 2.644e+00 0.000e+00 1.000e+00 0.000e+00
3.400e+00 2.644e+00 0.000e+00 1.000e+00 0.000e+00
3.589e+00 2.644e+00 0.000e+00 1.000e+00 0.000e+00
3.777e+00 2.644e+00 0.000e+00 1.000e+00 0.000e+00
3.966e+00 2.644e+00 0.000e+00 1.000e+00 0.000e+00
4.155e+00 2.644e+00 0.000e+00 1.000e+00 0.000e+00
4.344e+00 2.644e+00 0.000e+00 1.000e+00 0.000e+00
4.533e+00 2.644e+00 0.000e+00 1.000e+00 0.000e+00
0.000e+00 2.833e+00 0.000e+00 1.000e+00 0.000e+00
1.889e-01 2.833e+00 0.000e+00 1.000e+00 0.000e+00
3.777e-01 2.833e+00 0.000e+00 1.000e+00 0.000e+00
5.666e-01 2.833e+00 0.000e+00 1.000e+00 0.000e+00
7.555e-01 2.833e+00 0.000e+00 1.000e+00 0.000e+00
9.443e-01 2.833e+00 0.000e+00 1.000e+00 0.000e+00
1.133e+00 2.833e+00 0.000e+00 1.000e+00 0.000e+00
1.322e+00 2.833e+00 0.000e+00 1.000e+00 0.000e+00
1.511e+00 2.833e+00 0.000e+00 1.000e+00 0.000e+00
1.700e+00 2.833e+00 0.000e+00 1.000e+00 0.000e+00
1.889e+00 2.833e+00 0.000e+00 1.000e+00 0.000e+00
2.078e+00 2.833e+00 0.000e+00 1.000e+00 0.000e+00
2.266e+00 2.833e+00 0.000e+00 1.000e+00 0.000e+00
2.455e+00 2.833e+00 0.000e+00 1.000e+00 0.000e+00
2.644e+00 2.833e+00 0.000e+00 1.000e+00 0.000e+00
2.833e+00 2.833e+00 0.000e+00 1.000e+00 0.000e+00
3.022e+00 2.833e+00 0.000e+00 1.000e+00 0.000e+00
3.211e+00 2.833e+00 0.000e+00 1.000e+00 0.000e+00
3.400e+00 2.833e+00 0.000e+00 1.000e+00 0.000e+00
3.589e+00 2.833e+00 0.000e+00 1.000e+00 0.000e+00
3.777e+00 2.833e+00 0.000e+00 1.000e+00 0.000e+00
3.966e+00 2.833e+00 0.000e+00 1.000e+00 0.000e+00
4.155e+00 2.833e+00 0.000e+00 1.000e+00 0.000e+00
4.344e+00 2.833e+00 0.000e+00 1.000e+00 0.000e+00
4.533e+00 2.833e+00 0.000e+00 1.000e+00 0.000e+00
0.000e+00 3.022e+00 0.000e+00 1.000e+00 0.000e+00
1.889e-01 3.022e+00 0.000e+00 1.000e+00 0.000e+00
3.777e-01 3.022e+00 0.000e+00 1.000e+00 0.000e+00
5.666e-01 3.022e+00 0.000e+00 1.000e+00 0.000e+00
7.555e-01 3.022e+00 0.000e+00 1.000e+00 0.000e+00
9.443e-01 3.022e+00 0.000e+00 1.000e+00 0.000e+00
1.133e+00 3.022e+00 0.000e+00 1.000e+00 0.000e+00
1.322e+00 3.022e+00 0.000e+00 1.000e+00 0.000e+00
1.511e+00 3.022e+00 0.000e+00 1.000e+00 0.000e+00
1.700e+00 3.022e+00 0.000e+00 1.000e+00 0.000e+00
1.889e+00 3.022e+00 0.000e+00 1.000e+00 0.000e+00
2.078e+00 3.022e+00 0.000e+00 1.000e+00 0.000e+00
2.266e+00 3.022e+00 0.000e+00 1.000e+00 0.000e+00
2.455e+00 3.022e+00 0.000e+00 1.000e+00 0.000e+00
2.644e+00 3.022e+00 0.000e+00 1.000e+00 0.000e+00
2.833e+00 3.022e+00 0.000e+00 1.000e+00 0.000e+00
3.022e+00 3.022e+00 0.000e+00 1.000e+00 0.000e+00
3.211e+00 3.022e+00 0.000e+00 1.000e+00 0.000e+00
3.400e+00 3.022e+00 0.000e+00 1.000e+00 0.000e+00
3.589e+00 3.022e+00 0.000e+00 1.000e+00 0.000e+00
3.777e+00 3.022e+00 0.000e+00 1.000e+00 0.000e+00
3.966e+00 3.022e+00 0.000e+00 1.000e+00 0.000e+00
4.155e+00 3.022e+00 0.000e+00 1.000e+00 0.000e+00
4.344e+00 3.022e+00 0.000e+00 1.000e+00 0.000e+00
4.533e+00 3.022e+00 0.000e+00 1.000e+00 0.000e+00
0.000e+00 3.211e+00 0.000e+00 1.000e+00 0.000e+00
1.889e-01 3.211e+00 0.000e+00 1.000e+00 0.000e+00
3.777e-01 3.211e+00 0.000e+00 1.000e+00 0.000e+00
5.666e-01 3.211e+00 0.000e+00 1.000e+00 0.000e+00
7.555e-01 3.211e+00 0.000e+00 1.000e+00 0.000e+00
9.443e-01 3.211e+00 0.000e+00 1.000e+00 0.000e+00
1.133e+00 3.211e+00 0.000e+00 1.000e+00 0.000e+00
1.322e+00 3.211e+00 0.000e+00 1.000e+00 0.000e+00
1.511e+00 3.211e+00 0.000e+00 1.000e+00 0.000e+00
1.700e+00 3.211e+00 0.000e+00 1.000e+00 0.000e+00
1.889e+00 3.211e+00 0.000e+00 1.000e+00 0.000e+00
2.078e+00 3.211e+00 0.000e+00 1.000e+00 0.000e+00
2.266e+00 3.211e+00 0.000e+00 1.000e+00 0.000e+00
2.455e+00 3.211e+00 0.000e+00 1.000e+00 0.000e+00
2.644e+00 3.211e+00 0.000e+00 1.000e+00 0.000e+00
2.833e+00 3.211e+00 0.000e+00 1.000e+00 0.000e+00
3.022e+00 3.211e+00 0.000e+00 1.000e+00 0.000e+00
3.211e+00 3.211e+00 0.000e+00 1.000e+00 0.000e+00
3.400e+00 3.211e+00 0.000e+00 1.000e+00 0.000e+00
3.589e+00 3.211e+00 0.000e+00 1.000e+00 0.000e+00
3.777e+00 3.211e+00 0.000e+00 1.000e+00 0.000e+00
3.966e+00 3.211e+00 0.000e+00 1.000e+00 0.000e+00
4.155e+00 3.211e+00 0.000e+00 1.000e+00 0.000e+00
4.344e+00 3.211e+00 0.000e+00 1.000e+00 0.000e+00
4.533e+00 3.211e+00 0.000e+00 1.000e+00 0.000e+00
0.000e+00 3.400e+00 0.000e+00 1.000e+00 0.000e+00
1.889e-01 3.400e+00 0.000e+00 1.000e+00 0.000e+00
3.777e-01 3.400e+00 0.000e+00 1.000e+00 0.000e+00
5.666e-01 3.400e+00 0.000e+00 1.000e+00 0.000e+00
7.555e-01 3.400e+00 0.000e+00 1.000e+00 0.000e+00
9.443e-01 3.400e+00 0.000e+00 1.000e+00 0.000e+00
1.133e+00 3.400e+00 0.000e+00 1.000e+00 0.000e+00
1.322e+00 3.400e+00 0.000e+00 1.000e+00 0.000e+00
1.511e+00 3.400e+00 0.000e+00 1.000e+00 0.000e+00
1.700e+00 3.400e+00 0.000e+00 1.000e+00 0.000e+00
1.889e+00 3.400e+00 0.000e+00 1.000e+00 0.000e+00
2.078e+00 3.400e+00 0.000e+00 1.000e+00 0.000e+00
2.266e+00 3.400e+00 0.000e+00 1.000e+00 0.000e+00
2.455e+00 3.400e+00 0.000e+00 1.000e+00 0.000e+00
2.644e+00 3.400e+00 0.000e+00 1.000e+00 0.000e+00
2.833e+00 3.400e+00 0.000e+00 1.000e+00 0.000e+00
3.022e+00 3.400e+00 0.000e+00 1.000e+00 0.000e+00
3.211e+00 3.400e+00 0.000e+00 1.000e+00 0.000e+00
3.400e+00 3.400e+00 0.000e+00 1.000e+00 0.000e+00
3.589e+00 3.400e+00 0.000e+00 1.000e+00 0.000e+00
3.777e+00 3.400e+00 0.000e+00 1.000e+00 0.000e+00
3.966e+00 3.400e+00 0.000e+00 1.000e+00 0.000e+00
4.155e+00 3.400e+00 0.000e+00 1.000e+00 0.000e+00
4.344e+00 3.400e+00 0.000e+00 1.000e+00 0.000e+00
4.533e+00 3.400e+00 0.000e+00 1.000e+00 0.000e+00
0.000e+00 3.589e+00 0.000e+00 1.000e+00 0.000e+00
1.889e-01 3.589e+00 0.000e+00 1.000e+00 0.000e+00
3.777e-01 3.589e+00 0.000e+00 1.000e+00 0.000e+00
5.666e-01 3.589e+00 0.000e+00 1.000e+00 0.000e+00
7.555e-01 3.589e+00 0.000e+00 1.000e+00 0.000e+00
9.443e-01 3.589e+00 0.000e+00 1.000e+00 0.000e+00
1.133e+00 3.589e+00 0.000e+00 1.000e+00 0.000e+00
1.322e+00 3.589e+00 0.000e+00 1.000e+00 0.000e+00
1.511e+00 3.589e+00 0.000e+00 1.000e+00 0.000e+00
1.700e+00 3.589e+00 0.000e+00 1.000e+00 0.000e+00
1.889e+00 3.589e+00 0.000e+00 1.000e+00 0.000e+00
2.078e+00 3.589e+00 0.000e+00 1.000e+00 0.000e+00
2.266e+00 3.589e+00 0.000e+00 1.000e+00 0.000e+00
2.455e+00 3.589e+00 0.000e+00 1.000e+00 0.000e+00
2.644e+00 3.589e+00 0.000e+00 1.000e+00 0.000e+00
2.833e+00 3.589e+00 0.000e+00 1.000e+00 0.000e+00
3.022e+00 3.589e+00 0.000e+00 1.000e+00 0.000e+00
3.211e+00 3.589e+00 0.000e+00 1.000e+00 0.000e+00
3.400e+00 3.589e+00 0.000e+00 1.000e+00 0.000e+00
3.589e+00 3.589e+00 0.000e+00 1.000e+00 0.000e+00
3.777e+00 3.589e+00 0.000e+00 1.000e+00 0.000e+00
3.966e+00 3.589e+00 0.000e+00 1.000e+00 0.000e+00
4.155e+00 3.589e+00 0.000e+00 1.000e+00 0.000e+00
4.344e+00 3.589e+00 0.000e+00 1.000e+00 0.000e+00
4.533e+00 3.589e+00 0.000e+00 1.000e+00 0.000e+00
0.000e+00 3.777e+00 0.000e+00 1.000e+00 0.000e+00
1.889e-01 3.777e+00 0.000e+00 1.000e+00 0.000e+00
3.777e-01 3.777e+00 0.000e+00 1.000e+00 0.000e+00
5.666e-01 3.777e+00 0.000e+00 1.000e+00 0.000e+00
7.555e-01 3.777e+00 0.000e+00 1.000e+00 0.000e+00
9.443e-01 3.777e+00 0.000e+00 1.000e+00 0.000e+00
1.133e+00 3.777e+00 0.000e+00 1.000e+00 0.000e+00
1.322e+00 3.777e+00 0.000e+00 1.000e+00 0.000e+00
1.511e+00 3.777e+00 0.000e+00 1.000e+00 0.000e+00
1.700e+00 3.777e+00 0.000e+00 1.000e+00 0.000e+00
1.889e+00 3.777e+00 0.000e+00 1.000e+00 0.000e+00
2.078e+00 3.777e+00 0.000e+00 1.000e+00 0.000e+00
2.266e+00 3.777e+00 0.000e+00 1.000e+00 0.000e+00
2.455e+00 3.777e+00 0.000e+00 1.000e+00 0.000e+00
2.644e+00 3.777e+00 0.000e+00 1.000e+00 0.000e+00
2.833e+00 3.777e+00 0.000e+00 1.000e+00 0.000e+00
3.022e+00 3.777e+00 0.000e+00 1.000e+00 0.000e+00
3.211e+00 3.777e+00 0.000e+00 1.000e+00 0.000e+00
3.400e+00 3.777e+00 0.000e+00 1.000e+00 0.000e+00
3.589e+00 3.777e+00 0.000e+00 1.000e+00 0.000e+00
3.777e+00 3.777e+00 0.000e+00 1.000e+00 0.000e+00
3.966e+00 3.777e+00 0.000e+00 1.000e+00 0.000e+00
4.155e+00 3.777e+00 0.000e+00 1.000e+00 0.000e+00
4.344e+00 3.777e+00 0.000e+00 1.000e+00 0.000e+00
4.533e+00 3.777e+00 0.000e+00 1.000e+00 0.000e+00
0.000e+00 3.966e+00 0.000e+00 1.000e+00 0.000e+00
1.889e-01 3.966e+00 0.000e+00 1.000e+00 0.000e+00
3.777e-01 3.966e+00 0.000e+00 1.000e+00 0.000e+00
5.666e-01 3.966e+00 0.000e+00 1.000e+00 0.000e+00
7.555e-01 3.966e+00 0.000e+00 1.000e+00 0.000e+00
9.443e-01 3.966e+00 0.000e+00 1.000e+00 0.000e+00
1.133e+00 3.966e+00 0.000e+00 1.000e+00 0.000e+00
1.322e+00 3.966e+00 0.000e+00 1.000e+00 0.000e+00
1.511e+00 3.966e+00 0.000e+00 1.000e+00 0.000e+00
1.700e+00 3.966e+00 0.000e+00 1.000e+00 0.000e+00
1.889e+00 3.966e+00 0.000e+00 1.000e+00 0.000e+00
2.078e+00 3.966e+00 0.000e+00 1.000e+00 0.000e+00
2.266e+00 3.966e+00 0.000e+00 1.000e+00 0.000e+00
2.455e+00 3.966e+00 0.000e+00 1.000e+00 0.000e+00
2.644e+00 3.966e+00 0.000e+00 1.000e+00 0.000e+00
2.833e+00 3.966e+00 0.000e+00 1.000e+00 0.000e+00
3.022e+00 3.966e+00 0.000e+00 1.000e+00 0.000e+00
3.211e+00 3.966e+00 0.000e+00 1.000e+00 0.000e+00
3.400e+00 3.966e+00 0.000e+00 1.000e+00 0.000e+00
3.589e+00 3.966e+00 0.000e+00 1.000e+00 0.000e+00
3.777e+00 3.966e+00 0.000e+00 1.000e+00 0.000e+00
3.966e+00 3.966e+00 0.000e+00 1.000e+00 0.000e+00
4.155e+00 3.966e+00 0.000e+00 1.000e+00 0.000e+00
4.344e+00 3.966e+00 0.000e+00 1.000e+00 0.000e+00
4.533e+00 3.966e+00 0.000e+00 1.000e+00 0.000e+00
0.000e+00 4.155e+00 0.000e+00 1.000e+00 0.000e+00
1.889e-01 4.155e+00 0.000e+00 1.000e+00 0.000e+00
3.777e-01 4.155e+00 0.000e+00 1.000e+00 0.000e+00
5.666e-01 4.155e+00 0.000e+00 1.000e+00 0.000e+00
7.555e-01 4.155e+00 0.000e+00 1.000e+00 0.000e+00
9.443e-01 4.155e+00 0.000e+00 1.000e+00 0.000e+00
1.133e+00 4.155e+00 0.000e+00 1.000e+00 0.000e+00
1.322e+00 4.155e+00 0.000e+00 1.000e+00 0.000e+00
1.511e+00 4.155e+00 0.000e+00 1.000e+00 0.000e+00
1.700e+00 4.155e+00 0.000e+00 1.000e+00 0.000e+00
1.889e+00 4.155e+00 0.000e+00 1.000e+00 0.000e+00
2.078e+00 4.155e+00 0.000e+00 1.000e+00 0.000e+00
2.266e+00 4.155e+00 0.000e+00 1.000e+00 0.000e+00
2.455e+00 4.155e+00 0.000e+00 1.000e+00 0.000e+00
2.644e+00 4.155e+00 0.000e+00 1.000e+00 0.000e+00
2.833e+00 4.155e+00 0.000e+00 1.000e+00 0.000e+00
3.022e+00 4.155e+00 0.000e+00 1.000e+00 0.000e+00
3.211e+00 4.155e+00 0.000e+00 1.000e+00 0.000e+00
3.400e+00 4.155e+00 0.000e+00 1.000e+00 0.000e+00
3.589e+00 4.155e+00 0.000e+00 1.000e+00 0.000e+00
3.777e+00 4.155e+00 0.000e+00 1.000e+00 0.000e+00
3.966e+00 4.155e+00 0.000e+00 1.000e+00 0.000e+00
4.155e+00 4.155e+00 0.000e+00 1.000e+00 0.000e+00
4.344e+00 4.155e+00 0.000e+00 1.000e+00 0.000e+00
4.533e+00 4.155e+00 0.000e+00 1.000e+00 0.000e+00
0.000e+00 4.344e+00 0.000e+00 1.000e+00 0.000e+00
1.889e-01 4.344e+00 0.000e+00 1.000e+00 0.000e+00
3.777e-01 4.344e+00 0.000e+00 1.000e+00 0.000e+00
5.666e-01 4.344e+00 0.000e+00 1.000e+00 0.000e+00
7.555e-01 4.344e+00 0.000e+00 1.000e+00 0.000e+00
9.443e-01 4.344e+00 0.000e+00 1.000e+00 0.000e+00
1.133e+00 4.344e+00 0.000e+00 1.000e+00 0.000e+00
1.322e+00 4.344e+00 0.000e+00 1.000e+00 0.000e+00
1.511e+00 4.344e+00 0.000e+00 1.000e+00 0.000e+00
1.700e+00 4.344e+00 0.000e+00 1.000e+00 0.000e+00
1.889e+00 4.344e+00 0.000e+00 1.000e+00 0.000e+00
2.078e+00 4.344e+00 0.000e+00 1.000e+00 0.000e+00
2.266e+00 4.344e+00 0.000e+00 1.000e+00 0.000e+00
2.455e+00 4.344e+00 0.000e+00 1.000e+00 0.000e+00
2.644e+00 4.344e+00 0.000e+00 1.000e+00 0.000e+00
2.833e+00 4.344e+00 0.000e+00 1.000e+00 0.000e+00
3.022e+00 4.344e+00 0.000e+00 1.000e+00 0.000e+00
3.211e+00 4.344e+00 0.000e+00 1.000e+00 0.000e+00
3.400e+00 4.344e+00 0.000e+00 1.000e+00 0.000e+00
3.589e+00 4.344e+00 0.000e+00 1.000e+00 0.000e+00
3.777e+00 4.344e+00 0.000e+00 1.000e+00 0.000e+00
3.966e+00 4.344e+00 0.000e+00 1.000e+00 0.000e+00
4.155e+00 4.344e+00 0.000e+00 1.000e+00 0.000e+00