TITLE = "rho_surf"
VARIABLES = "X", "Y", "Z", "Real", "Imaginary"
ZONE I=25, J=35, K=75, F=POINT
0.000e+00 0.000e+00 0.000e+00 1.000e+00 0.000e+00
1.920e-01 0.000e+00 0.000e+00 1.000e+00 0.000e+00
3.840e-01 0.000e+00 0.000e+00 1.000e+00 0.000e+00
5.760e-01 0.000e+00 0.000e+00 1.000e+00 0.000e+00
7.680e-01 0.000e+00 0.000e+00 1.000e+00 0.000e+00
9.600e-01 0.000e+00 0.000e+00 1.000e+00 0.000e+00
1.152e+00 0.000e+00 0.000e+00 1.000e+00 0.000e+00
1.344e+00 0.000e+00 0.000e+00 1.000e+00 0.000e+00
1.536e+00 0.000e+00 0.000e+00 1.000e+00 0.000e+00
1.728e+00 0.000e+00 0.000e+00 1.000e+00 0.000e+00
1.920e+00 0.000e+00 0.000e+00 1.000e+00 0.000e+00
2.112e+00 0.000e+00 0.000e+00 1.000e+00 0.000e+00
2.304e+00 0.000e+00 0.000e+00 1.000e+00 0.000e+00
2.496e+00 0.000e+00 0.000e+00 1.000e+00 0.000e+00
2.688e+00 0.000e+00 0.000e+00 1.000e+00 0.000e+00
2.880e+00 0.000e+00 0.000e+00 1.000e+00 0.000e+00
3.072e+00 0.000e+00 0.000e+00 1.000e+00 0.000e+00
3.264e+00 0.000e+00 0.000e+00 1.000e+00 0.000e+00
3.456e+00 0.000e+00 0.000e+00 1.000e+00 0.000e+00
3.648e+00 0.000e+00 0.000e+00 1.000e+00 0.000e+00
3.840e+00 0.000e+00 0.000e+00 1.000e+00 0.000e+00
4.032e+00 0.000e+00 0.000e+00 1.000e+00 0.000e+00
4.224e+00 0.000e+00 0.000e+00 1.000e+00 0.000e+00
4.416e+00 0.000e+00 0.000e+00 1.000e+00 0.000e+00
4.608e+00 0.000e+00 0.000e+00 1.000e+00 0.000e+00
0.000e+00 2.375e-01 0.000e+00 1.000e+00 0.000e+00
1.920e-01 2.375e-01 0.000e+00 1.000e+00 0.000e+00
3.840e-01 2.375e-01 0.000e+00 1.000e+00 0.000e+00
5.760e-01 2.375e-01 0.000e+00 1.000e+00 0.000e+00
7.680e-01 2.375e-01 0.000e+00 1.000e+00 0.000e+00
9.600e-01 2.375e-01 0.000e+00 1.000e+00 0.000e+00
1.152e+00 2.375e-01 0.000e+00 1.000e+00 0.000e+00
1.344e+00 2.375e-01 0.000e+00 1.000e+00 0.000e+00
1.536e+00 2.375e-01 0.000e+00 1.000e+00 0.000e+00
1.728e+00 2.375e-01 0.000e+00 1.000e+00 0.000e+00
1.920e+00 2.375e-01 0.000e+00 1.000e+00 0.000e+00
2.112e+00 2.375e-01 0.000e+00 1.000e+00 0.000e+00
2.304e+00 2.375e-01 0.000e+00 1.000e+00 0.000e+00
2.496e+00 2.375e-01 0.000e+00 1.000e+00 0.000e+00
2.688e+00 2.375e-01 0.000e+00 1.000e+00 0.000e+00
2.880e+00 2.375e-01 0.000e+00 1.000e+00 0.000e+00
3.072e+00 2.375e-01 0.000e+00 1.000e+00 0.000e+00
3.264e+00 2.375e-01 0.000e+00 1.000e+00 0.000e+00
3.456e+00 2.375e-01 0.000e+00 1.000e+00 0.000e+00
3.648e+00 2.375e-01 0.000e+00 1.000e+00 0.000e+00
3.840e+00 2.375e-01 0.000e+00 1.000e+00 0.000e+00
4.032e+00 2.375e-01 0.000e+00 1.000e+00 0.000e+00
4.224e+00 2.375e-01 0.000e+00 1.000e+00 0.000e+00
4.416e+00 2.375e-01 0.000e+00 1.000e+00 0.000e+00
4.608e+00 2.375e-01 0.000e+00 1.000e+00 0.000e+00
0.000e+00 4.751e-01 0.000e+00 1.000e+00 0.000e+00
1.920e-01 4.751e-01 0.000e+00 1.000e+00 0.000e+00
3.840e-01 4.751e-01 0.000e+00 1.000e+00 0.000e+00
5.760e-01 4.751e-01 0.000e+00 1.000e+00 0.000e+00
7.680e-01 4.751e-01 0.000e+00 1.000e+00 0.000e+00
9.600e-01 4.751e-01 0.000e+00 1.000e+00 0.000e+00
1.152e+00 4.751e-01 0.000e+00 1.000e+00 0.000e+00
1.344e+00 4.751e-01 0.000e+00 1.000e+00 0.000e+00
1.536e+00 4.751e-01 0.000e+00 1.000e+00 0.000e+00
1.728e+00 4.751e-01 0.000e+00 1.000e+00 0.000e+00
1.920e+00 4.751e-01 0.000e+00 1.000e+00 0.000e+00
2.112e+00 4.751e-01 0.000e+00 1.000e+00 0.000e+00
2.304e+00 4.751e-01 0.000e+00 1.000e+00 0.000e+00
2.496e+00 4.751e-01 0.000e+00 1.000e+00 0.000e+00
2.688e+00 4.751e-01 0.000e+00 1.000e+00 0.000e+00
2.880e+00 4.751e-01 0.000e+00 1.000e+00 0.000e+00
3.072e+00 4.751e-01 0.000e+00 1.000e+00 0.000e+00
3.264e+00 4.751e-01 0.000e+00 1.000e+00 0.000e+00
3.456e+00 4.751e-01 0.000e+00 1.000e+00 0.000e+00
3.648e+00 4.751e-01 0.000e+00 1.000e+00 0.000e+00
3.840e+00 4.751e-01 0.000e+00 1.000e+00 0.000e+00
4.032e+00 4.751e-01 0.000e+00 1.000e+00 0.000e+00
4.224e+00 4.751e-01 0.000e+00 1.000e+00 0.000e+00
4.416e+00 4.751e-01 0.000e+00 1.000e+00 0.000e+00
4.608e+00 4.751e-01 0.000e+00 1.000e+00 0.000e+00
0.000e+00 7.126e-01 0.000e+00 1.000e+00 0.000e+00
1.920e-01 7.126e-01 0.000e+00 1.000e+00 0.000e+00
3.840e-01 7.126e-01 0.000e+00 1.000e+00 0.000e+00
5.760e-01 7.126e-01 0.000e+00 1.000e+00 0.000e+00
7.680e-01 7.126e-01 0.000e+00 1.000e+00 0.000e+00
9.600e-01 7.126e-01 0.000e+00 1.000e+00 0.000e+00
1.152e+00 7.126e-01 0.000e+00 1.000e+00 0.000e+00
1.344e+00 7.126e-01 0.000e+00 1.000e+00 0.000e+00
1.536e+00 7.126e-01 0.000e+00 1.000e+00 0.000e+00
1.728e+00 7.126e-01 0.000e+00 1.000e+00 0.000e+00
1.920e+00 7.126e-01 0.000e+00 1.000e+00 0.000e+00
2.112e+00 7.126e-01 0.000e+00 1.000e+00 0.000e+00
2.304e+00 7.126e-01 0.000e+00 1.000e+00 0.000e+00
2.496e+00 7.126e-01 0.000e+00 1.000e+00 0.000e+00
2.688e+00 7.126e-01 0.000e+00 1.000e+00 0.000e+00
2.880e+00 7.126e-01 0.000e+00 1.000e+00 0.000e+00
3.072e+00 7.126e-01 0.000e+00 1.000e+00 0.000e+00
3.264e+00 7.126e-01 0.000e+00 1.000e+00 0.000e+00
3.456e+00 7.126e-01 0.000e+00 1.000e+00 0.000e+00
3.648e+00 7.126e-01 0.000e+00 1.000e+00 0.000e+00
3.840e+00 7.126e-01 0.000e+00 1.000e+00 0.000e+00
4.032e+00 7.126e-01 0.000e+00 1.000e+00 0.000e+00
4.224e+00 7.126e-01 0.000e+00 1.000e+00 0.000e+00
4.416e+00 7.126e-01 0.000e+00 1.000e+00 0.000e+00
4.608e+00 7.126e-01 0.000e+00 1.000e+00 0.000e+00
0.000e+00 9.501e-01 0.000e+00 1.000e+00 0.000e+00
1.920e-01 9.501e-01 0.000e+00 1.000e+00 0.000e+00
3.840e-01 9.501e-01 0.000e+00 1.000e+00 0.000e+00
5.760e-01 9.501e-01 0.000e+00 1.000e+00 0.000e+00
7.680e-01 9.501e-01 0.000e+00 1.000e+00 0.000e+00
9.600e-01 9.501e-01 0.000e+00 1.000e+00 0.000e+00
1.152e+00 9.501e-01 0.000e+00 1.000e+00 0.000e+00
1.344e+00 9.501e-01 0.000e+00 1.000e+00 0.000e+00
1.536e+00 9.501e-01 0.000e+00 1.000e+00 0.000e+00
1.728e+00 9.501e-01 0.000e+00 1.000e+00 0.000e+00
1.920e+00 9.501e-01 0.000e+00 1.000e+00 0.000e+00
2.112e+00 9.501e-01 0.000e+00 1.000e+00 0.000e+00
2.304e+00 9.501e-01 0.000e+00 1.000e+00 0.000e+00
2.496e+00 9.501e-01 0.000e+00 1.000e+00 0.000e+00
2.688e+00 9.501e-01 0.000e+00 1.000e+00 0.000e+00
2.880e+00 9.501e-01 0.000e+00 1.000e+00 0.000e+00
3.072e+00 9.501e-01 0.000e+00 1.000e+00 0.000e+00
3.264e+00 9.501e-01 0.000e+00 1.000e+00 0.000e+00
3.456e+00 9.501e-01 0.000e+00 1.000e+00 0.000e+00
3.648e+00 9.501e-01 0.000e+00 1.000e+00 0.000e+00
3.840e+00 9.501e-01 0.000e+00 1.000e+00 0.000e+00
4.032e+00 9.501e-01 0.000e+00 1.000e+00 0.000e+00
4.224e+00 9.501e-01 0.000e+00 1.000e+00 0.000e+00
4.416e+00 9.501e-01 0.000e+00 1.000e+00 0.000e+00
4.608e+00 9.501e-01 0.000e+00 1.000e+00 0.000e+00
0.000e+00 1.188e+00 0.000e+00 1.000e+00 0.000e+00
1.920e-01 1.188e+00 0.000e+00 1.000e+00 0.000e+00
3.840e-01 1.188e+00 0.000e+00 1.000e+00 0.000e+00
5.760e-01 1.188e+00 0.000e+00 1.000e+00 0.000e+00
7.680e-01 1.188e+00 0.000e+00 1.000e+00 0.000e+00
9.600e-01 1.188e+00 0.000e+00 1.000e+00 0.000e+00
1.152e+00 1.188e+00 0.000e+00 1.000e+00 0.000e+00
1.344e+00 1.188e+00 0.000e+00 1.000e+00 0.000e+00
1.536e+00 1.188e+00 0.000e+00 1.000e+00 0.000e+00
1.728e+00 1.188e+00 0.000e+00 1.000e+00 0.000e+00
1.920e+00 1.188e+00 0.000e+00 1.000e+00 0.000e+00
2.112e+00 1.188e+00 0.000e+00 1.000e+00 0.000e+00
2.304e+00 1.188e+00 0.000e+00 1.000e+00 0.000e+00
2.496e+00 1.188e+00 0.000e+00 1.000e+00 0.000e+00
2.688e+00 1.188e+00 0.000e+00 1.000e+00 0.000e+00
2.880e+00 1.188e+00 0.000e+00 1.000e+00 0.000e+00
3.072e+00 1.188e+00 0.000e+00 1.000e+00 0.000e+00
3.264e+00 1.188e+00 0.000e+00 1.000e+00 0.000e+00
3.456e+00 1.188e+00 0.000e+00 1.000e+00 0.000e+00
3.648e+00 1.188e+00 0.000e+00 1.000e+00 0.000e+00
3.840e+00 1.188e+00 0.000e+00 1.000e+00 0.000e+00
4.032e+00 1.188e+00 0.000e+00 1.000e+00 0.000e+00
4.224e+00 1.188e+00 0.000e+00 1.000e+00 0.000e+00
4.416e+00 1.188e+00 0.000e+00 1.000e+00 0.000e+00
4.608e+00 1.188e+00 0.000e+00 1.000e+00 0.000e+00
0.000e+00 1.425e+00 0.000e+00 1.000e+00 0.000e+00
1.920e-01 1.425e+00 0.000e+00 1.000e+00 0.000e+00
3.840e-01 1.425e+00 0.000e+00 1.000e+00 0.000e+00
5.760e-01 1.425e+00 0.000e+00 1.000e+00 0.000e+00
7.680e-01 1.425e+00 0.000e+00 1.000e+00 0.000e+00
9.600e-01 1.425e+00 0.000e+00 1.000e+00 0.000e+00
1.152e+00 1.425e+00 0.000e+00 1.000e+00 0.000e+00
1.344e+00 1.425e+00 0.000e+00 1.000e+00 0.000e+00
1.536e+00 1.425e+00 0.000e+00 1.000e+00 0.000e+00
1.728e+00 1.425e+00 0.000e+00 1.000e+00 0.000e+00
1.920e+00 1.425e+00 0.000e+00 1.000e+00 0.000e+00
2.112e+00 1.425e+00 0.000e+00 1.000e+00 0.000e+00
2.304e+00 1.425e+00 0.000e+00 1.000e+00 0.000e+00
2.496e+00 1.425e+00 0.000e+00 1.000e+00 0.000e+00
2.688e+00 1.425e+00 0.000e+00 1.000e+00 0.000e+00
2.880e+00 1.425e+00 0.000e+00 1.000e+00 0.000e+00
3.072e+00 1.425e+00 0.000e+00 1.000e+00 0.000e+00
3.264e+00 1.425e+00 0.000e+00 1.000e+00 0.000e+00
3.456e+00 1.425e+00 0.000e+00 1.000e+00 0.000e+00
3.648e+00 1.425e+00 0.000e+00 1.000e+00 0.000e+00
3.840e+00 1.425e+00 0.000e+00 1.000e+00 0.000e+00
4.032e+00 1.425e+00 0.000e+00 1.000e+00 0.000e+00
4.224e+00 1.425e+00 0.000e+00 1.000e+00 0.000e+00
4.416e+00 1.425e+00 0.000e+00 1.000e+00 0.000e+00
4.608e+00 1.425e+00 0.000e+00 1.000e+00 0.000e+00
0.000e+00 1.663e+00 0.000e+00 1.000e+00 0.000e+00
1.920e-01 1.663e+00 0.000e+00 1.000e+00 0.000e+00
3.840e-01 1.663e+00 0.000e+00 1.000e+00 0.000e+00
5.760e-01 1.663e+00 0.000e+00 1.000e+00 0.000e+00
7.680e-01 1.663e+00 0.000e+00 1.000e+00 0.000e+00
9.600e-01 1.663e+00 0.000e+00 1.000e+00 0.000e+00
1.152e+00 1.663e+00 0.000e+00 1.000e+00 0.000e+00
1.344e+00 1.663e+00 0.000e+00 1.000e+00 0.000e+00
1.536e+00 1.663e+00 0.000e+00 1.000e+00 0.000e+00
1.728e+00 1.663e+00 0.000e+00 1.000e+00 0.000e+00
1.920e+00 1.663e+00 0.000e+00 1.000e+00 0.000e+00
2.112e+00 1.663e+00 0.000e+00 1.000e+00 0.000e+00
2.304e+00 1.663e+00 0.000e+00 1.000e+00 0.000e+00
2.496e+00 1.663e+00 0.000e+00 1.000e+00 0.000e+00
2.688e+00 1.663e+00 0.000e+00 1.000e+00 0.000e+00
2.880e+00 1.663e+00 0.000e+00 1.000e+00 0.000e+00
3.072e+00 1.663e+00 0.000e+00 1.000e+00 0.000e+00
3.264e+00 1.663e+00 0.000e+00 1.000e+00 0.000e+00
3.456e+00 1.663e+00 0.000e+00 1.000e+00 0.000e+00
3.648e+00 1.663e+00 0.000e+00 1.000e+00 0.000e+00
3.840e+00 1.663e+00 0.000e+00 1.000e+00 0.000e+00
4.032e+00 1.663e+00 0.000e+00 1.000e+00 0.000e+00
4.224e+00 1.663e+00 0.000e+00 1.000e+00 0.000e+00
4.416e+00 1.663e+00 0.000e+00 1.000e+00 0.000e+00
4.608e+00 1.663e+00 0.000e+00 1.000e+00 0.000e+00
0.000e+00 1.900e+00 0.000e+00 1.000e+00 0.000e+00
1.920e-01 1.900e+00 0.000e+00 1.000e+00 0.000e+00
3.840e-01 1.900e+00 0.000e+00 1.000e+00 0.000e+00
5.760e-01 1.900e+00 0.000e+00 1.000e+00 0.000e+00
7.680e-01 1.900e+00 0.000e+00 1.000e+00 0.000e+00
9.600e-01 1.900e+00 0.000e+00 1.000e+00 0.000e+00
1.152e+00 1.900e+00 0.000e+00 1.000e+00 0.000e+00
1.344e+00 1.900e+00 0.000e+00 1.000e+00 0.000e+00
1.536e+00 1.900e+00 0.000e+00 1.000e+00 0.000e+00
1.728e+00 1.900e+00 0.000e+00 1.000e+00 0.000e+00
1.920e+00 1.900e+00 0.000e+00 1.000e+00 0.000e+00
2.112e+00 1.900e+00 0.000e+00 1.000e+00 0.000e+00
2.304e+00 1.900e+00 0.000e+00 1.000e+00 0.000e+00
2.496e+00 1.900e+00 0.000e+00 1.000e+00 0.000e+00
2.688e+00 1.900e+00 0.000e+00 1.000e+00 0.000e+00
2.880e+00 1.900e+00 0.000e+00 1.000e+00 0.000e+00
3.072e+00 1.900e+00 0.000e+00 1.000e+00 0.000e+00
3.264e+00 1.900e+00 0.000e+00 1.000e+00 0.000e+00
3.456e+00 1.900e+00 0.000e+00 1.000e+00 0.000e+00
3.648e+00 1.900e+00 0.000e+00 1.000e+00 0.000e+00
3.840e+00 1.900e+00 0.000e+00 1.000e+00 0.000e+00
4.032e+00 1.900e+00 0.000e+00 1.000e+00 0.000e+00
4.224e+00 1.900e+00 0.000e+00 1.000e+00 0.000e+00
4.416e+00 1.900e+00 0.000e+00 1.000e+00 0.000e+00
4.608e+00 1.900e+00 0.000e+00 1.000e+00 0.000e+00
0.000e+00 2.138e+00 0.000e+00 1.000e+00 0.000e+00
1.920e-01 2.138e+00 0.000e+00 1.000e+00 0.000e+00
3.840e-01 2.138e+00 0.000e+00 1.000e+00 0.000e+00
5.760e-01 2.138e+00 0.000e+00 1.000e+00 0.000e+00
7.680e-01 2.138e+00 0.000e+00 1.000e+00 0.000e+00
9.600e-01 2.138e+00 0.000e+00 1.000e+00 0.000e+00
1.152e+00 2.138e+00 0.000e+00 1.000e+00 0.000e+00
1.344e+00 2.138e+00 0.000e+00 1.000e+00 0.000e+00
1.536e+00 2.138e+00 0.000e+00 1.000e+00 0.000e+00
1.728e+00 2.138e+00 0.000e+00 1.000e+00 0.000e+00
1.920e+00 2.138e+00 0.000e+00 1.000e+00 0.000e+00
2.112e+00 2.138e+00 0.000e+00 1.000e+00 0.000e+00
2.304e+00 2.138e+00 0.000e+00 1.000e+00 0.000e+00
2.496e+00 2.138e+00 0.000e+00 1.000e+00 0.000e+00
2.688e+00 2.138e+00 0.000e+00 1.000e+00 0.000e+00
2.880e+00 2.138e+00 0.000e+00 1.000e+00 0.000e+00
3.072e+00 2.138e+00 0.000e+00 1.000e+00 0.000e+00
3.264e+00 2.138e+00 0.000e+00 1.000e+00 0.000e+00
3.456e+00 2.138e+00 0.000e+00 1.000e+00 0.000e+00
3.648e+00 2.138e+00 0.000e+00 1.000e+00 0.000e+00
3.840e+00 2.138e+00 0.000e+00 1.000e+00 0.000e+00
4.032e+00 2.138e+00 0.000e+00 1.000e+00 0.000e+00
4.224e+00 2.138e+00 0.000e+00 1.000e+00 0.000e+00
4.416e+00 2.138e+00 0.000e+00 1.000e+00 0.000e+00
4.608e+00 2.138e+00 0.000e+00 1.000e+00 0.000e+00
0.000e+00 2.375e+00 0.000e+00 1.000e+00 0.000e+00
1.920e-01 2.375e+00 0.000e+00 1.000e+00 0.000e+00
3.840e-01 2.375e+00 0.000e+00 1.000e+00 0.000e+00
5.760e-01 2.375e+00 0.000e+00 1.000e+00 0.000e+00
7.680e-01 2.375e+00 0.000e+00 1.000e+00 0.000e+00
9.600e-01 2.375e+00 0.000e+00 1.000e+00 0.000e+00
1.152e+00 2.375e+00 0.000e+00 1.000e+00 0.000e+00
1.344e+00 2.375e+00 0.000e+00 1.000e+00 0.000e+00
1.536e+00 2.375e+00 0.000e+00 1.000e+00 0.000e+00
1.728e+00 2.375e+00 0.000e+00 1.000e+00 0.000e+00
1.920e+00 2.375e+00 0.000e+00 1.000e+00 0.000e+00
2.112e+00 2.375e+00 0.000e+00 1.000e+00 0.000e+00
2.304e+00 2.375e+00 0.000e+00 1.000e+00 0.000e+00
2.496e+00 2.375e+00 0.000e+00 1.000e+00 0.000e+00
2.688e+00 2.375e+00 0.000e+00 1.000e+00 0.000e+00
2.880e+00 2.375e+00 0.000e+00 1.000e+00 0.000e+00
3.072e+00 2.375e+00 0.000e+00 1.000e+00 0.000e+00
3.264e+00 2.375e+00 0.000e+00 1.000e+00 0.000e+00
3.456e+00 2.375e+00 0.000e+00 1.000e+00 0.000e+00
3.648e+00 2.375e+00 0.000e+00 1.000e+00 0.000e+00
3.840e+00 2.375e+00 0.000e+00 1.000e+00 0.000e+00
4.032e+00 2.375e+00 0.000e+00 1.000e+00 0.000e+00
4.224e+00 2.375e+00 0.000e+00 1.000e+00 0.000e+00
4.416e+00 2.375e+00 0.000e+00 1.000e+00 0.000e+00
4.608e+00 2.375e+00 0.000e+00 1.000e+00 0.000e+00
0.000e+00 2.613e+00 0.000e+00 1.000e+00 0.000e+00
1.920e-01 2.613e+00 0.000e+00 1.000e+00 0.000e+00
3.840e-01 2.613e+00 0.000e+00 1.000e+00 0.000e+00
5.760e-01 2.613e+00 0.000e+00 1.000e+00 0.000e+00
7.680e-01 2.613e+00 0.000e+00 1.000e+00 0.000e+00
9.600e-01 2.613e+00 0.000e+00 1.000e+00 0.000e+00
1.152e+00 2.613e+00 0.000e+00 1.000e+00 0.000e+00
1.344e+00 2.613e+00 0.000e+00 1.000e+00 0.000e+00
1.536e+00 2.613e+00 0.000e+00 1.000e+00 0.000e+00
1.728e+00 2.613e+00 0.000e+00 1.000e+00 0.000e+00
1.920e+00 2.613e+00 0.000e+00 1.000e+00 0.000e+00
2.112e+00 2.613e+00 0.000e+00 1.000e+00 0.000e+00
2.304e+00 2.613e+00 0.000e+00 1.000e+00 0.000e+00
2.496e+00 2.613e+00 0.000e+00 1.000e+00 0.000e+00
2.688e+00 2.613e+00 0.000e+00 1.000e+00 0.000e+00
2.880e+00 2.613e+00 0.000e+00 1.000e+00 0.000e+00
3.072e+00 2.613e+00 0.000e+00 1.000e+00 0.000e+00
3.264e+00 2.613e+00 0.000e+00 1.000e+00 0.000e+00
3.456e+00 2.613e+00 0.000e+00 1.000e+00 0.000e+00
3.648e+00 2.613e+00 0.000e+00 1.000e+00 0.000e+00
3.840e+00 2.613e+00 0.000e+00 1.000e+00 0.000e+00
4.032e+00 2.613e+00 0.000e+00 1.000e+00 0.000e+00
4.224e+00 2.613e+00 0.000e+00 1.000e+00 0.000e+00
4.416e+00 2.613e+00 0.000e+00 1.000e+00 0.000e+00
4.608e+00 2.613e+00 0.000e+00 1.000e+00 0.000e+00
0.000e+00 2.850e+00 0.000e+00 1.000e+00 0.000e+00
1.920e-01 2.850e+00 0.000e+00 1.000e+00 0.000e+00
3.840e-01 2.850e+00 0.000e+00 1.000e+00 0.000e+00
5.760e-01 2.850e+00 0.000e+00 1.000e+00 0.000e+00
7.680e-01 2.850e+00 0.000e+00 1.000e+00 0.000e+00
9.600e-01 2.850e+00 0.000e+00 1.000e+00 0.000e+00
1.152e+00 2.850e+00 0.000e+00 1.000e+00 0.000e+00
1.344e+00 2.850e+00 0.000e+00 1.000e+00 0.000e+00
1.536e+00 2.850e+00 0.000e+00 1.000e+00 0.000e+00
1.728e+00 2.850e+00 0.000e+00 1.000e+00 0.000e+00
1.920e+00 2.850e+00 0.000e+00 1.000e+00 0.000e+00
2.112e+00 2.850e+00 0.000e+00 1.000e+00 0.000e+00
2.304e+00 2.850e+00 0.000e+00 1.000e+00 0.000e+00
2.496e+00 2.850e+00 0.000e+00 1.000e+00 0.000e+00
2.688e+00 2.850e+00 0.000e+00 1.000e+00 0.000e+00
2.880e+00 2.850e+00 0.000e+00 1.000e+00 0.000e+00
3.072e+00 2.850e+00 0.000e+00 1.000e+00 0.000e+00
3.264e+00 2.850e+00 0.000e+00 1.000e+00 0.000e+00
3.456e+00 2.850e+00 0.000e+00 1.000e+00 0.000e+00
3.648e+00 2.850e+00 0.000e+00 1.000e+00 0.000e+00
3.840e+00 2.850e+00 0.000e+00 1.000e+00 0.000e+00
4.032e+00 2.850e+00 0.000e+00 1.000e+00 0.000e+00
4.224e+00 2.850e+00 0.000e+00 1.000e+00 0.000e+00
4.416e+00 2.850e+00 0.000e+00 1.000e+00 0.000e+00
4.608e+00 2.850e+00 0.000e+00 1.000e+00 0.000e+00
0.000e+00 3.088e+00 0.000e+00 1.000e+00 0.000e+00
1.920e-01 3.088e+00 0.000e+00 1.000e+00 0.000e+00
3.840e-01 3.088e+00 0.000e+00 1.000e+00 0.000e+00
5.760e-01 3.088e+00 0.000e+00 1.000e+00 0.000e+00
7.680e-01 3.088e+00 0.000e+00 1.000e+00 0.000e+00
9.600e-01 3.088e+00 0.000e+00 1.000e+00 0.000e+00
1.152e+00 3.088e+00 0.000e+00 1.000e+00 0.000e+00
1.344e+00 3.088e+00 0.000e+00 1.000e+00 0.000e+00
1.536e+00 3.088e+00 0.000e+00 1.000e+00 0.000e+00
1.728e+00 3.088e+00 0.000e+00 1.000e+00 0.000e+00
1.920e+00 3.088e+00 0.000e+00 1.000e+00 0.000e+00
2.112e+00 3.088e+00 0.000e+00 1.000e+00 0.000e+00
2.304e+00 3.088e+00 0.000e+00 1.000e+00 0.000e+00
2.496e+00 3.088e+00 0.000e+00 1.000e+00 0.000e+00
2.688e+00 3.088e+00 0.000e+00 1.000e+00 0.000e+00
2.880e+00 3.088e+00 0.000e+00 1.000e+00 0.000e+00
3.072e+00 3.088e+00 0.000e+00 1.000e+00 0.000e+00
3.264e+00 3.088e+00 0.000e+00 1.000e+00 0.000e+00
3.456e+00 3.088e+00 0.000e+00 1.000e+00 0.000e+00
3.648e+00 3.088e+00 0.000e+00 1.000e+00 0.000e+00
3.840e+00 3.088e+00 0.000e+00 1.000e+00 0.000e+00
4.032e+00 3.088e+00 0.000e+00 1.000e+00 0.000e+00
4.224e+00 3.088e+00 0.000e+00 1.000e+00 0.000e+00
4.416e+00 3.088e+00 0.000e+00 1.000e+00 0.000e+00
4.608e+00 3.088e+00 0.000e+00 1.000e+00 0.000e+00
0.000e+00 3.326e+00 0.000e+00 1.000e+00 0.000e+00
1.920e-01 3.326e+00 0.000e+00 1.000e+00 0.000e+00
3.840e-01 3.326e+00 0.000e+00 1.000e+00 0.000e+00
5.760e-01 3.326e+00 0.000e+00 1.000e+00 0.000e+00
7.680e-01 3.326e+00 0.000e+00 1.000e+00 0.000e+00
9.600e-01 3.326e+00 0.000e+00 1.000e+00 0.000e+00
1.152e+00 3.326e+00 0.000e+00 1.000e+00 0.000e+00
1.344e+00 3.326e+00 0.000e+00 1.000e+00 0.000e+00
1.536e+00 3.326e+00 0.000e+00 1.000e+00 0.000e+00
1.728e+00 3.326e+00 0.000e+00 1.000e+00 0.000e+00
1.920e+00 3.326e+00 0.000e+00 1.000e+00 0.000e+00
2.112e+00 3.326e+00 0.000e+00 1.000e+00 0.000e+00
2.304e+00 3.326e+00 0.000e+00 1.000e+00 0.000e+00
2.496e+00 3.326e+00 0.000e+00 1.000e+00 0.000e+00
2.688e+00 3.326e+00 0.000e+00 1.000e+00 0.000e+00
2.880e+00 3.326e+00 0.000e+00 1.000e+00 0.000e+00
3.072e+00 3.326e+00 0.000e+00 1.000e+00 0.000e+00
3.264e+00 3.326e+00 0.000e+00 1.000e+00 0.000e+00
3.456e+00 3.326e+00 0.000e+00 1.000e+00 0.000e+00
3.648e+00 3.326e+00 0.000e+00 1.000e+00 0.000e+00
3.840e+00 3.326e+00 0.000e+00 1.000e+00 0.000e+00
4.032e+00 3.326e+00 0.000e+00 1.000e+00 0.000e+00
4.224e+00 3.326e+00 0.000e+00 1.000e+00 0.000e+00
4.416e+00 3.326e+00 0.000e+00 1.000e+00 0.000e+00
4.608e+00 3.326e+00 0.000e+00 1.000e+00 0.000e+00
0.000e+00 3.563e+00 0.000e+00 1.000e+00 0.000e+00
1.920e-01 3.563e+00 0.000e+00 1.000e+00 0.000e+00
3.840e-01 3.563e+00 0.000e+00 1.000e+00 0.000e+00
5.760e-01 3.563e+00 0.000e+00 1.000e+00 0.000e+00
7.680e-01 3.563e+00 0.000e+00 1.000e+00 0.000e+00
9.600e-01 3.563e+00 0.000e+00 1.000e+00 0.000e+00
1.152e+00 3.563e+00 0.000e+00 1.000e+00 0.000e+00
1.344e+00 3.563e+00 0.000e+00 1.000e+00 0.000e+00
1.536e+00 3.563e+00 0.000e+00 1.000e+00 0.000e+00
1.728e+00 3.563e+00 0.000e+00 1.000e+00 0.000e+00
1.920e+00 3.563e+00 0.000e+00 1.000e+00 0.000e+00
2.112e+00 3.563e+00 0.000e+00 1.000e+00 0.000e+00
2.304e+00 3.563e+00 0.000e+00 1.000e+00 0.000e+00
2.496e+00 3.563e+00 0.000e+00 1.000e+00 0.000e+00
2.688e+00 3.563e+00 0.000e+00 1.000e+00 0.000e+00
2.880e+00 3.563e+00 0.000e+00 1.000e+00 0.000e+00
3.072e+00 3.563e+00 0.000e+00 1.000e+00 0.000e+00
3.264e+00 3.563e+00 0.000e+00 1.000e+00 0.000e+00
3.456e+00 3.563e+00 0.000e+00 1.000e+00 0.000e+00
3.648e+00 3.563e+00 0.000e+00 1.000e+00 0.000e+00
3.840e+00 3.563e+00 0.000e+00 1.000e+00 0.000e+00
4.032e+00 3.563e+00 0.000e+00 1.000e+00 0.000e+00
4.224e+00 3.563e+00 0.000e+00 1.000e+00 0.000e+00
4.416e+00 3.563e+00 0.000e+00 1.000e+00 0.000e+00
4.608e+00 3.563e+00 0.000e+00 1.000e+00 0.000e+00
0.000e+00 3.801e+00 0.000e+00 1.000e+00 0.000e+00
1.920e-01 3.801e+00 0.000e+00 1.000e+00 0.000e+00
3.840e-01 3.801e+00 0.000e+00 1.000e+00 0.000e+00
5.760e-01 3.801e+00 0.000e+00 1.000e+00 0.000e+00
7.680e-01 3.801e+00 0.000e+00 1.000e+00 0.000e+00
9.600e-01 3.801e+00 0.000e+00 1.000e+00 0.000e+00
1.152e+00 3.801e+00 0.000e+00 1.000e+00 0.000e+00
1.344e+00 3.801e+00 0.000e+00 1.000e+00 0.000e+00
1.536e+00 3.801e+00 0.000e+00 1.000e+00 0.000e+00
1.728e+00 3.801e+00 0.000e+00 1.000e+00 0.000e+00
1.920e+00 3.801e+00 0.000e+00 1.000e+00 0.000e+00
2.112e+00 3.801e+00 0.000e+00 1.000e+00 0.000e+00
2.304e+00 3.801e+00 0.000e+00 1.000e+00 0.000e+00
2.496e+00 3.801e+00 0.000e+00 1.000e+00 0.000e+00
2.688e+00 3.801e+00 0.000e+00 1.000e+00 0.000e+00
2.880e+00 3.801e+00 0.000e+00 1.000e+00 0.000e+00
3.072e+00 3.801e+00 0.000e+00 1.000e+00 0.000e+00
3.264e+00 3.801e+00 0.000e+00 1.000e+00 0.000e+00
3.456e+00 3.801e+00 0.000e+00 1.000e+00 0.000e+00
3.648e+00 3.801e+00 0.000e+00 1.000e+00 0.000e+00
3.840e+00 3.801e+00 0.000e+00 1.000e+00 0.000e+00
4.032e+00 3.801e+00 0.000e+00 1.000e+00 0.000e+00
4.224e+00 3.801e+00 0.000e+00 1.000e+00 0.000e+00
4.416e+00 3.801e+00 0.000e+00 1.000e+00 0.000e+00
4.608e+00 3.801e+00 0.000e+00 1.000e+00 0.000e+00
0.000e+00 4.038e+00 0.000e+00 1.000e+00 0.000e+00
1.920e-01 4.038e+00 0.000e+00 1.000e+00 0.000e+00
3.840e-01 4.038e+00 0.000e+00 1.000e+00 0.000e+00
5.760e-01 4.038e+00 0.000e+00 1.000e+00 0.000e+00
7.680e-01 4.038e+00 0.000e+00 1.000e+00 0.000e+00
9.600e-01 4.038e+00 0.000e+00 1.000e+00 0.000e+00
1.152e+00 4.038e+00 0.000e+00 1.000e+00 0.000e+00
1.344e+00 4.038e+00 0.000e+00 1.000e+00 0.000e+00
1.536e+00 4.038e+00 0.000e+00 1.000e+00 0.000e+00
1.728e+00 4.038e+00 0.000e+00 1.000e+00 0.000e+00
1.920e+00 4.038e+00 0.000e+00 1.000e+00 0.000e+00
2.112e+00 4.038e+00 0.000e+00 1.000e+00 0.000e+00
2.304e+00 4.038e+00 0.000e+00 1.000e+00 0.000e+00
2.496e+00 4.038e+00 0.000e+00 1.000e+00 0.000e+00
2.688e+00 4.038e+00 0.000e+00 1.000e+00 0.000e+00
2.880e+00 4.038e+00 0.000e+00 1.000e+00 0.000e+00
3.072e+00 4.038e+00 0.000e+00 1.000e+00 0.000e+00
3.264e+00 4.038e+00 0.000e+00 1.000e+00 0.000e+00
3.456e+00 4.038e+00 0.000e+00 1.000e+00 0.000e+00
3.648e+00 4.038e+00 0.000e+00 1.000e+00 0.000e+00
3.840e+00 4.038e+00 0.000e+00 1.000e+00 0.000e+00
4.032e+00 4.038e+00 0.000e+00 1.000e+00 0.000e+00
4.224e+00 4.038e+00 0.000e+00 1.000e+00 0.000e+00
4.416e+00 4.038e+00 0.000e+00 1.000e+00 0.000e+00
4.608e+00 4.038e+00 0.000e+00 1.000e+00 0.000e+00
0.000e+00 4.276e+00 0.000e+00 1.000e+00 0.000e+00
1.920e-01 4.276e+00 0.000e+00 1.000e+00 0.000e+00
3.840e-01 4.276e+00 0.000e+00 1.000e+00 0.000e+00
5.760e-01 4.276e+00 0.000e+00 1.000e+00 0.000e+00
7.680e-01 4.276e+00 0.000e+00 1.000e+00 0.000e+00
9.600e-01 4.276e+00 0.000e+00 1.000e+00 0.000e+00
1.152e+00 4.276e+00 0.000e+00 1.000e+00 0.000e+00
1.344e+00 4.276e+00 0.000e+00 1.000e+00 0.000e+00
1.536e+00 4.276e+00 0.000e+00 1.000e+00 0.000e+00
1.728e+00 4.276e+00 0.000e+00 1.000e+00 0.000e+00
1.920e+00 4.276e+00 0.000e+00 1.000e+00 0.000e+00
2.112e+00 4.276e+00 0.000e+00 1.000e+00 0.000e+00
2.304e+00 4.276e+00 0.000e+00 1.000e+00 0.000e+00
2.496e+00 4.276e+00 0.000e+00 1.000e+00 0.000e+00
2.688e+00 4.276e+00 0.000e+00 1.000e+00 0.000e+00
2.880e+00 4.276e+00 0.000e+00 1.000e+00 0.000e+00
3.072e+00 4.276e+00 0.000e+00 1.000e+00 0.000e+00
3.264e+00 4.276e+00 0.000e+00 1.000e+00 0.000e+00
3.456e+00 4.276e+00 0.000e+00 1.000e+00 0.000e+00
3.648e+00 4.276e+00 0.000e+00 1.000e+00 0.000e+00
3.840e+00 4.276e+00 0.000e+00 1.000e+00 0.000e+00
4.032e+00 4.276e+00 0.000e+00 1.000e+00 0.000e+00
4.224e+00 4.276e+00 0.000e+00 1.000e+00 0.000e+00
4.416e+00 4.276e+00 0.000e+00 1.000e+00 0.000e+00
4.608e+00 4.276e+00 0.000e+00 1.000e+00 0.000e+00
0.000e+00 4.513e+00 0.000e+00 1.000e+00 0.000e+00
1.920e-01 4.513e+00 0.000e+00 1.000e+00 0.000e+00
3.840e-01 4.513e+00 0.000e+00 1.000e+00 0.000e+00
5.760e-01 4.513e+00 0.000e+00 1.000e+00 0.000e+00
7.680e-01 4.513e+00 0.000e+00 1.000e+00 0.000e+00
9.600e-01 4.513e+00 0.000e+00 1.000e+00 0.000e+00
1.152e+00 4.513e+00 0.000e+00 1.000e+00 0.000e+00
1.344e+00 4.513e+00 0.000e+00 1.000e+00 0.000e+00
1.536e+00 4.513e+00 0.000e+00 1.000e+00 0.000e+00
1.728e+00 4.513e+00 0.000e+00 1.000e+00 0.000e+00
1.920e+00 4.513e+00 0.000e+00 1.000e+00 0.000e+00
2.112e+00 4.513e+00 0.000e+00 1.000e+00 0.000e+00
2.304e+00 4.513e+00 0.000e+00 1.000e+00 0.000e+00
2.496e+00 4.513e+00 0.000e+00 1.000e+00 0.000e+00
2.688e+00 4.513e+00 0.000e+00 1.000e+00 0.000e+00
2.880e+00 4.513e+00 0.000e+00 1.000e+00 0.000e+00
3.072e+00 4.513e+00 0.000e+00 1.000e+00 0.000e+00
3.264e+00 4.513e+00 0.000e+00 1.000e+00 0.000e+00
3.456e+00 4.513e+00 0.000e+00 1.000e+00 0.000e+00
3.648e+00 4.513e+00 0.000e+00 1.000e+00 0.000e+00
3.840e+00 4.513e+00 0.000e+00 1.000e+00 0.000e+00
4.032e+00 4.513e+00 0.000e+00 1.000e+00 0.000e+00
4.224e+00 4.513e+00 0.000e+00 1.000e+00 0.000e+00
4.416e+00 4.513e+00 0.000e+00 1.000e+00 0.000e+00
4.608e+00 4.513e+00 0.000e+00 1.000e+00 0.000e+00
0.000e+00 4.751e+00 0.000e+00 1.000e+00 0.000e+00
1.920e-01 4.751e+00 0.000e+00 1.000e+00 0.000e+00
3.840e-01 4.751e+00 0.000e+00 1.000e+00 0.000e+00
5.760e-01 4.751e+00 0.000e+00 1.000e+00 0.000e+00
7.680e-01 4.751e+00 0.000e+00 1.000e+00 0.000e+00
9.600e-01 4.751e+00 0.000e+00 1.000e+00 0.000e+00
1.152e+00 4.751e+00 0.000e+00 1.000e+00 0.000e+00
1.344e+00 4.751e+00 0.000e+00 1.000e+00 0.000e+00
1.536e+00 4.751e+00 0.000e+00 1.000e+00 0.000e+00
1.728e+00 4.751e+00 0.000e+00 1.000e+00 0.000e+00
1.920e+00 4.751e+00 0.000e+00 1.000e+00 0.000e+00
2.112e+00 4.751e+00 0.000e+00 1.000e+00 0.000e+00
2.304e+00 4.751e+00 0.000e+00 1.000e+00 0.000e+00
2.496e+00 4.751e+00 0.000e+00 1.000e+00 0.000e+00
2.688e+00 4.751e+00 0.000e+00 1.000e+00 0.000e+00
2.880e+00 4.751e+00 0.000e+00 1.000e+00 0.000e+00
3.072e+00 4.751e+00 0.000e+00 1.000e+00 0.000e+00
3.264e+00 4.751e+00 0.000e+00 1.000e+00 0.000e+00
3.456e+00 4.751e+00 0.000e+00 1.000e+00 0.000e+00
3.648e+00 4.751e+00 0.000e+00 1.000e+00 0.000e+00
3.840e+00 4.751e+00 0.000e+00 1.000e+00 0.000e+00
4.032e+00 4.751e+00 0.000e+00 1.000e+00 0.000e+00
4.224e+00 4.751e+00 0.000e+00 1.000e+00 0.000e+00
4.416e+00 4.751e+00 0.000e+00 1.000e+00 0.000e+00
4.608e+00 4.751e+00 0.000e+00 1.000e+00 0.000e+00
0.000e+00 4.988e+00 0.000e+00 1.000e+00 0.000e+00
1.920e-01 4.988e+00 0.000e+00 1.000e+00 0.000e+00
3.840e-01 4.988e+00 0.000e+00 1.000e+00 0.000e+00
5.760e-01 4.988e+00 0.000e+00 1.000e+00 0.000e+00
7.680e-01 4.988e+00 0.000e+00 1.000e+00 0.000e+00
9.600e-01 4.988e+00 0.000e+00 1.000e+00 0.000e+00
1.152e+00 4.988e+00 0.000e+00 1.000e+00 0.000e+00
1.344e+00 4.988e+00 0.000e+00 1.000e+00 0.000e+00
1.536e+00 4.988e+00 0.000e+00 1.000e+00 0.000e+00
1.728e+00 4.988e+00 0.000e+00 1.000e+00 0.000e+00
1.920e+00 4.988e+00 0.000e+00 1.000e+00 0.000e+00
2.112e+00 4.988e+00 0.000e+00 1.000e+00 0.000e+00
2.304e+00 4.988e+00 0.000e+00 1.000e+00 0.000e+00
2.496e+00 4.988e+00 0.000e+00 1.000e+00 0.000e+00
2.688e+00 4.988e+00 0.000e+00 1.000e+00 0.000e+00
2.880e+00 4.988e+00 0.000e+00 1.000e+00 0.000e+00
3.072e+00 4.988e+00 0.000e+00 1.000e+00 0.000e+00
3.264e+00 4.988e+00 0.000e+00 1.000e+00 0.000e+00
3.456e+00 4.988e+00 0.000e+00 1.000e+00 0.000e+00
3.648e+00 4.988e+00 0.000e+00 1.000e+00 0.000e+00
3.840e+00 4.988e+00 0.000e+00 1.000e+00 0.000e+00
4.032e+00 4.988e+00 0.000e+00 1.000e+00 0.000e+00
4.224e+00 4.988e+00 0.000e+00 1.000e+00 0.000e+00
4.416e+00 4.988e+00 0.000e+00 1.000e+00 0.000e+00
4.608e+00 4.988e+00 0.000e+00 1.000e+00 0.000e+00
0.000e+00 5.226e+00 0.000e+00 1.000e+00 0.000e+00
1.920e-01 5.226e+00 0.000e+00 1.000e+00 0.000e+00
3.840e-01 5.226e+00 0.000e+00 1.000e+00 0.000e+00
5.760e-01 5.226e+00 0.000e+00 1.000e+00 0.000e+00
7.680e-01 5.226e+00 0.000e+00 1.000e+00 0.000e+00
9.600e-01 5.226e+00 0.000e+00 1.000e+00 0.000e+00
1.152e+00 5.226e+00 0.000e+00 1.000e+00 0.000e+00
1.344e+00 5.226e+00 0.000e+00 1.000e+00 0.000e+00
1.536e+00 5.226e+00 0.000e+00 1.000e+00 0.000e+00
1.728e+00 5.226e+00 0.000e+00 1.000e+00 0.000e+00
1.920e+00 5.226e+00 0.000e+00 1.000e+00 0.000e+00
2.112e+00 5.226e+00 0.000e+00 1.000e+00 0.000e+00
2.304e+00 5.226e+00 0.000e+00 1.000e+00 0.000e+00
2.496e+00 5.226e+00 0.000e+00 1.000e+00 0.000e+00
2.688e+00 5.226e+00 0.000e+00 1.000e+00 0.000e+00
2.880e+00 5.226e+00 0.000e+00 1.000e+00 0.000e+00
3.072e+00 5.226e+00 0.000e+00 1.000e+00 0.000e+00
3.264e+00 5.226e+00 0.000e+00 1.000e+00 0.000e+00
3.456e+00 5.226e+00 0.000e+00 1.000e+00 0.000e+00
3.648e+00 5.226e+00 0.000e+00 1.000e+00 0.000e+00
3.840e+00 5.226e+00 0.000e+00 1.000e+00 0.000e+00
4.032e+00 5.226e+00 0.000e+00 1.000e+00 0.000e+00
4.224e+00 5.226e+00 0.000e+00 1.000e+00 0.000e+00
4.416e+00 5.226e+00 0.000e+00 1.000e+00 0.000e+00
4.608e+00 5.226e+00 0.000e+00 1.000e+00 0.000e+00
0.000e+00 5.463e+00 0.000e+00 1.000e+00 0.000e+00
1.920e-01 5.463e+00 0.000e+00 1.000e+00 0.000e+00
3.840e-01 5.463e+00 0.000e+00 1.000e+00 0.000e+00
5.760e-01 5.463e+00 0.000e+00 1.000e+00 0.000e+00
7.680e-01 5.463e+00 0.000e+00 1.000e+00 0.000e+00
9.600e-01 5.463e+00 0.000e+00 1.000e+00 0.000e+00
1.152e+00 5.463e+00 0.000e+00 1.000e+00 0.000e+00
1.344e+00 5.463e+00 0.000e+00 1.000e+00 0.000e+00
1.536e+00 5.463e+00 0.000e+00 1.000e+00 0.000e+00
1.728e+00 5.463e+00 0.000e+00 1.000e+00 0.000e+00
1.920e+00 5.463e+00 0.000e+00 1.000e+00 0.000e+00
2.112e+00 5.463e+00 0.000e+00 1.000e+00 0.000e+00
2.304e+00 5.463e+00 0.000e+00 1.000e+00 0.000e+00
2.496e+00 5.463e+00 0.000e+00 1.000e+00 0.000e+00
2.688e+00 5.463e+00 0.000e+00 1.000e+00 0.000e+00
2.880e+00 5.463e+00 0.000e+00 1.000e+00 0.000e+00
3.072e+00 5.463e+00 0.000e+00 1.000e+00 0.000e+00
3.264e+00 5.463e+00 0.000e+00 1.000e+00 0.000e+00
3.456e+00 5.463e+00 0.000e+00 1.000e+00 0.000e+00
3.648e+00 5.463e+00 0.000e+00 1.000e+00 0.000e+00
3.840e+00 5.463e+00 0.000e+00 1.000e+00 0.000e+00
4.032e+00 5.463e+00 0.000e+00 1.000e+00 0.000e+00
4.224e+00 5.463e+00 0.000e+00 1.000e+00 0.000e+00