TITLE = "rho_tot"
VARIABLES = "X", "Y", "Z", "Real", "Imaginary"
ZONE I=25, J=25, K=75, F=POINT
0.000e+00 0.000e+00 0.000e+00 3.600e+02 4.041e-17
1.889e-01 0.000e+00 0.000e+00 3.600e+02 5.807e-17
3.777e-01 0.000e+00 0.000e+00 3.600e+02 -1.552e-16
5.666e-01 0.000e+00 0.000e+00 3.600e+02 -2.327e-16
7.555e-01 0.000e+00 0.000e+00 3.600e+02 3.052e-17
9.443e-01 0.000e+00 0.000e+00 3.600e+02 -4.214e-16
1.133e+00 0.000e+00 0.000e+00 3.600e+02 -1.820e-16
1.322e+00 0.000e+00 0.000e+00 3.600e+02 -2.207e-16
1.511e+00 0.000e+00 0.000e+00 3.600e+02 -4.035e-16
1.700e+00 0.000e+00 0.000e+00 3.600e+02 -1.734e-16
1.889e+00 0.000e+00 0.000e+00 3.600e+02 -4.188e-17
2.078e+00 0.000e+00 0.000e+00 3.600e+02 -2.576e-16
2.266e+00 0.000e+00 0.000e+00 3.600e+02 -6.992e-17
2.455e+00 0.000e+00 0.000e+00 3.600e+02 9.836e-18
2.644e+00 0.000e+00 0.000e+00 3.600e+02 4.662e-17
2.833e+00 0.000e+00 0.000e+00 3.600e+02 7.588e-17
3.022e+00 0.000e+00 0.000e+00 3.600e+02 -1.019e-17
3.211e+00 0.000e+00 0.000e+00 3.600e+02 8.738e-17
3.400e+00 0.000e+00 0.000e+00 3.600e+02 1.104e-16
3.589e+00 0.000e+00 0.000e+00 3.600e+02 6.895e-17
3.777e+00 0.000e+00 0.000e+00 3.600e+02 1.877e-16
3.966e+00 0.000e+00 0.000e+00 3.600e+02 -3.956e-17
4.155e+00 0.000e+00 0.000e+00 3.600e+02 1.038e-16
4.344e+00 0.000e+00 0.000e+00 3.600e+02 6.474e-17
4.533e+00 0.000e+00 0.000e+00 3.600e+02 -2.243e-18
0.000e+00 1.889e-01 0.000e+00 3.600e+02 4.041e-17
1.889e-01 1.889e-01 0.000e+00 3.600e+02 5.807e-17
3.777e-01 1.889e-01 0.000e+00 3.600e+02 -1.552e-16
5.666e-01 1.889e-01 0.000e+00 3.600e+02 -2.327e-16
7.555e-01 1.889e-01 0.000e+00 3.600e+02 3.052e-17
9.443e-01 1.889e-01 0.000e+00 3.600e+02 -4.214e-16
1.133e+00 1.889e-01 0.000e+00 3.600e+02 -1.820e-16
1.322e+00 1.889e-01 0.000e+00 3.600e+02 -2.207e-16
1.511e+00 1.889e-01 0.000e+00 3.600e+02 -4.035e-16
1.700e+00 1.889e-01 0.000e+00 3.600e+02 -1.734e-16
1.889e+00 1.889e-01 0.000e+00 3.600e+02 -4.188e-17
2.078e+00 1.889e-01 0.000e+00 3.600e+02 -2.576e-16
2.266e+00 1.889e-01 0.000e+00 3.600e+02 -6.992e-17
2.455e+00 1.889e-01 0.000e+00 3.600e+02 9.836e-18
2.644e+00 1.889e-01 0.000e+00 3.600e+02 4.662e-17
2.833e+00 1.889e-01 0.000e+00 3.600e+02 7.588e-17
3.022e+00 1.889e-01 0.000e+00 3.600e+02 -1.019e-17
3.211e+00 1.889e-01 0.000e+00 3.600e+02 8.738e-17
3.400e+00 1.889e-01 0.000e+00 3.600e+02 1.104e-16
3.589e+00 1.889e-01 0.000e+00 3.600e+02 6.895e-17
3.777e+00 1.889e-01 0.000e+00 3.600e+02 1.877e-16
3.966e+00 1.889e-01 0.000e+00 3.600e+02 -3.956e-17
4.155e+00 1.889e-01 0.000e+00 3.600e+02 1.038e-16
4.344e+00 1.889e-01 0.000e+00 3.600e+02 6.474e-17
4.533e+00 1.889e-01 0.000e+00 3.600e+02 -2.243e-18
0.000e+00 3.777e-01 0.000e+00 3.600e+02 4.041e-17
1.889e-01 3.777e-01 0.000e+00 3.600e+02 5.807e-17
3.777e-01 3.777e-01 0.000e+00 3.600e+02 -1.552e-16
5.666e-01 3.777e-01 0.000e+00 3.600e+02 -2.327e-16
7.555e-01 3.777e-01 0.000e+00 3.600e+02 3.052e-17
9.443e-01 3.777e-01 0.000e+00 3.600e+02 -4.214e-16
1.133e+00 3.777e-01 0.000e+00 3.600e+02 -1.820e-16
1.322e+00 3.777e-01 0.000e+00 3.600e+02 -2.207e-16
1.511e+00 3.777e-01 0.000e+00 3.600e+02 -4.035e-16
1.700e+00 3.777e-01 0.000e+00 3.600e+02 -1.734e-16
1.889e+00 3.777e-01 0.000e+00 3.600e+02 -4.188e-17
2.078e+00 3.777e-01 0.000e+00 3.600e+02 -2.576e-16
2.266e+00 3.777e-01 0.000e+00 3.600e+02 -6.992e-17
2.455e+00 3.777e-01 0.000e+00 3.600e+02 9.836e-18
2.644e+00 3.777e-01 0.000e+00 3.600e+02 4.662e-17
2.833e+00 3.777e-01 0.000e+00 3.600e+02 7.588e-17
3.022e+00 3.777e-01 0.000e+00 3.600e+02 -1.019e-17
3.211e+00 3.777e-01 0.000e+00 3.600e+02 8.738e-17
3.400e+00 3.777e-01 0.000e+00 3.600e+02 1.104e-16
3.589e+00 3.777e-01 0.000e+00 3.600e+02 6.895e-17
3.777e+00 3.777e-01 0.000e+00 3.600e+02 1.877e-16
3.966e+00 3.777e-01 0.000e+00 3.600e+02 -3.956e-17
4.155e+00 3.777e-01 0.000e+00 3.600e+02 1.038e-16
4.344e+00 3.777e-01 0.000e+00 3.600e+02 6.474e-17
4.533e+00 3.777e-01 0.000e+00 3.600e+02 -2.243e-18
0.000e+00 5.666e-01 0.000e+00 3.600e+02 4.041e-17
1.889e-01 5.666e-01 0.000e+00 3.600e+02 5.807e-17
3.777e-01 5.666e-01 0.000e+00 3.600e+02 -1.552e-16
5.666e-01 5.666e-01 0.000e+00 3.600e+02 -2.327e-16
7.555e-01 5.666e-01 0.000e+00 3.600e+02 3.052e-17
9.443e-01 5.666e-01 0.000e+00 3.600e+02 -4.214e-16
1.133e+00 5.666e-01 0.000e+00 3.600e+02 -1.820e-16
1.322e+00 5.666e-01 0.000e+00 3.600e+02 -2.207e-16
1.511e+00 5.666e-01 0.000e+00 3.600e+02 -4.035e-16
1.700e+00 5.666e-01 0.000e+00 3.600e+02 -1.734e-16
1.889e+00 5.666e-01 0.000e+00 3.600e+02 -4.188e-17
2.078e+00 5.666e-01 0.000e+00 3.600e+02 -2.576e-16
2.266e+00 5.666e-01 0.000e+00 3.600e+02 -6.992e-17
2.455e+00 5.666e-01 0.000e+00 3.600e+02 9.836e-18
2.644e+00 5.666e-01 0.000e+00 3.600e+02 4.662e-17
2.833e+00 5.666e-01 0.000e+00 3.600e+02 7.588e-17
3.022e+00 5.666e-01 0.000e+00 3.600e+02 -1.019e-17
3.211e+00 5.666e-01 0.000e+00 3.600e+02 8.738e-17
3.400e+00 5.666e-01 0.000e+00 3.600e+02 1.104e-16
3.589e+00 5.666e-01 0.000e+00 3.600e+02 6.895e-17
3.777e+00 5.666e-01 0.000e+00 3.600e+02 1.877e-16
3.966e+00 5.666e-01 0.000e+00 3.600e+02 -3.956e-17
4.155e+00 5.666e-01 0.000e+00 3.600e+02 1.038e-16
4.344e+00 5.666e-01 0.000e+00 3.600e+02 6.474e-17
4.533e+00 5.666e-01 0.000e+00 3.600e+02 -2.243e-18
0.000e+00 7.555e-01 0.000e+00 3.600e+02 4.041e-17
1.889e-01 7.555e-01 0.000e+00 3.600e+02 5.807e-17
3.777e-01 7.555e-01 0.000e+00 3.600e+02 -1.552e-16
5.666e-01 7.555e-01 0.000e+00 3.600e+02 -2.327e-16
7.555e-01 7.555e-01 0.000e+00 3.600e+02 3.052e-17
9.443e-01 7.555e-01 0.000e+00 3.600e+02 -4.214e-16
1.133e+00 7.555e-01 0.000e+00 3.600e+02 -1.820e-16
1.322e+00 7.555e-01 0.000e+00 3.600e+02 -2.207e-16
1.511e+00 7.555e-01 0.000e+00 3.600e+02 -4.035e-16
1.700e+00 7.555e-01 0.000e+00 3.600e+02 -1.734e-16
1.889e+00 7.555e-01 0.000e+00 3.600e+02 -4.188e-17
2.078e+00 7.555e-01 0.000e+00 3.600e+02 -2.576e-16
2.266e+00 7.555e-01 0.000e+00 3.600e+02 -6.992e-17
2.455e+00 7.555e-01 0.000e+00 3.600e+02 9.836e-18
2.644e+00 7.555e-01 0.000e+00 3.600e+02 4.662e-17
2.833e+00 7.555e-01 0.000e+00 3.600e+02 7.588e-17
3.022e+00 7.555e-01 0.000e+00 3.600e+02 -1.019e-17
3.211e+00 7.555e-01 0.000e+00 3.600e+02 8.738e-17
3.400e+00 7.555e-01 0.000e+00 3.600e+02 1.104e-16
3.589e+00 7.555e-01 0.000e+00 3.600e+02 6.895e-17
3.777e+00 7.555e-01 0.000e+00 3.600e+02 1.877e-16
3.966e+00 7.555e-01 0.000e+00 3.600e+02 -3.956e-17
4.155e+00 7.555e-01 0.000e+00 3.600e+02 1.038e-16
4.344e+00 7.555e-01 0.000e+00 3.600e+02 6.474e-17
4.533e+00 7.555e-01 0.000e+00 3.600e+02 -2.243e-18
0.000e+00 9.443e-01 0.000e+00 3.600e+02 4.041e-17
1.889e-01 9.443e-01 0.000e+00 3.600e+02 5.807e-17
3.777e-01 9.443e-01 0.000e+00 3.600e+02 -1.552e-16
5.666e-01 9.443e-01 0.000e+00 3.600e+02 -2.327e-16
7.555e-01 9.443e-01 0.000e+00 3.600e+02 3.052e-17
9.443e-01 9.443e-01 0.000e+00 3.600e+02 -4.214e-16
1.133e+00 9.443e-01 0.000e+00 3.600e+02 -1.820e-16
1.322e+00 9.443e-01 0.000e+00 3.600e+02 -2.207e-16
1.511e+00 9.443e-01 0.000e+00 3.600e+02 -4.035e-16
1.700e+00 9.443e-01 0.000e+00 3.600e+02 -1.734e-16
1.889e+00 9.443e-01 0.000e+00 3.600e+02 -4.188e-17
2.078e+00 9.443e-01 0.000e+00 3.600e+02 -2.576e-16
2.266e+00 9.443e-01 0.000e+00 3.600e+02 -6.992e-17
2.455e+00 9.443e-01 0.000e+00 3.600e+02 9.836e-18
2.644e+00 9.443e-01 0.000e+00 3.600e+02 4.662e-17
2.833e+00 9.443e-01 0.000e+00 3.600e+02 7.588e-17
3.022e+00 9.443e-01 0.000e+00 3.600e+02 -1.019e-17
3.211e+00 9.443e-01 0.000e+00 3.600e+02 8.738e-17
3.400e+00 9.443e-01 0.000e+00 3.600e+02 1.104e-16
3.589e+00 9.443e-01 0.000e+00 3.600e+02 6.895e-17
3.777e+00 9.443e-01 0.000e+00 3.600e+02 1.877e-16
3.966e+00 9.443e-01 0.000e+00 3.600e+02 -3.956e-17
4.155e+00 9.443e-01 0.000e+00 3.600e+02 1.038e-16
4.344e+00 9.443e-01 0.000e+00 3.600e+02 6.474e-17
4.533e+00 9.443e-01 0.000e+00 3.600e+02 -2.243e-18
0.000e+00 1.133e+00 0.000e+00 3.600e+02 4.041e-17
1.889e-01 1.133e+00 0.000e+00 3.600e+02 5.807e-17
3.777e-01 1.133e+00 0.000e+00 3.600e+02 -1.552e-16
5.666e-01 1.133e+00 0.000e+00 3.600e+02 -2.327e-16
7.555e-01 1.133e+00 0.000e+00 3.600e+02 3.052e-17
9.443e-01 1.133e+00 0.000e+00 3.600e+02 -4.214e-16
1.133e+00 1.133e+00 0.000e+00 3.600e+02 -1.820e-16
1.322e+00 1.133e+00 0.000e+00 3.600e+02 -2.207e-16
1.511e+00 1.133e+00 0.000e+00 3.600e+02 -4.035e-16
1.700e+00 1.133e+00 0.000e+00 3.600e+02 -1.734e-16
1.889e+00 1.133e+00 0.000e+00 3.600e+02 -4.188e-17
2.078e+00 1.133e+00 0.000e+00 3.600e+02 -2.576e-16
2.266e+00 1.133e+00 0.000e+00 3.600e+02 -6.992e-17
2.455e+00 1.133e+00 0.000e+00 3.600e+02 9.836e-18
2.644e+00 1.133e+00 0.000e+00 3.600e+02 4.662e-17
2.833e+00 1.133e+00 0.000e+00 3.600e+02 7.588e-17
3.022e+00 1.133e+00 0.000e+00 3.600e+02 -1.019e-17
3.211e+00 1.133e+00 0.000e+00 3.600e+02 8.738e-17
3.400e+00 1.133e+00 0.000e+00 3.600e+02 1.104e-16
3.589e+00 1.133e+00 0.000e+00 3.600e+02 6.895e-17
3.777e+00 1.133e+00 0.000e+00 3.600e+02 1.877e-16
3.966e+00 1.133e+00 0.000e+00 3.600e+02 -3.956e-17
4.155e+00 1.133e+00 0.000e+00 3.600e+02 1.038e-16
4.344e+00 1.133e+00 0.000e+00 3.600e+02 6.474e-17
4.533e+00 1.133e+00 0.000e+00 3.600e+02 -2.243e-18
0.000e+00 1.322e+00 0.000e+00 3.600e+02 4.041e-17
1.889e-01 1.322e+00 0.000e+00 3.600e+02 5.807e-17
3.777e-01 1.322e+00 0.000e+00 3.600e+02 -1.552e-16
5.666e-01 1.322e+00 0.000e+00 3.600e+02 -2.327e-16
7.555e-01 1.322e+00 0.000e+00 3.600e+02 3.052e-17
9.443e-01 1.322e+00 0.000e+00 3.600e+02 -4.214e-16
1.133e+00 1.322e+00 0.000e+00 3.600e+02 -1.820e-16
1.322e+00 1.322e+00 0.000e+00 3.600e+02 -2.207e-16
1.511e+00 1.322e+00 0.000e+00 3.600e+02 -4.035e-16
1.700e+00 1.322e+00 0.000e+00 3.600e+02 -1.734e-16
1.889e+00 1.322e+00 0.000e+00 3.600e+02 -4.188e-17
2.078e+00 1.322e+00 0.000e+00 3.600e+02 -2.576e-16
2.266e+00 1.322e+00 0.000e+00 3.600e+02 -6.992e-17
2.455e+00 1.322e+00 0.000e+00 3.600e+02 9.836e-18
2.644e+00 1.322e+00 0.000e+00 3.600e+02 4.662e-17
2.833e+00 1.322e+00 0.000e+00 3.600e+02 7.588e-17
3.022e+00 1.322e+00 0.000e+00 3.600e+02 -1.019e-17
3.211e+00 1.322e+00 0.000e+00 3.600e+02 8.738e-17
3.400e+00 1.322e+00 0.000e+00 3.600e+02 1.104e-16
3.589e+00 1.322e+00 0.000e+00 3.600e+02 6.895e-17
3.777e+00 1.322e+00 0.000e+00 3.600e+02 1.877e-16
3.966e+00 1.322e+00 0.000e+00 3.600e+02 -3.956e-17
4.155e+00 1.322e+00 0.000e+00 3.600e+02 1.038e-16
4.344e+00 1.322e+00 0.000e+00 3.600e+02 6.474e-17
4.533e+00 1.322e+00 0.000e+00 3.600e+02 -2.243e-18
0.000e+00 1.511e+00 0.000e+00 3.600e+02 4.041e-17
1.889e-01 1.511e+00 0.000e+00 3.600e+02 5.807e-17
3.777e-01 1.511e+00 0.000e+00 3.600e+02 -1.552e-16
5.666e-01 1.511e+00 0.000e+00 3.600e+02 -2.327e-16
7.555e-01 1.511e+00 0.000e+00 3.600e+02 3.052e-17
9.443e-01 1.511e+00 0.000e+00 3.600e+02 -4.214e-16
1.133e+00 1.511e+00 0.000e+00 3.600e+02 -1.820e-16
1.322e+00 1.511e+00 0.000e+00 3.600e+02 -2.207e-16
1.511e+00 1.511e+00 0.000e+00 3.600e+02 -4.035e-16
1.700e+00 1.511e+00 0.000e+00 3.600e+02 -1.734e-16
1.889e+00 1.511e+00 0.000e+00 3.600e+02 -4.188e-17
2.078e+00 1.511e+00 0.000e+00 3.600e+02 -2.576e-16
2.266e+00 1.511e+00 0.000e+00 3.600e+02 -6.992e-17
2.455e+00 1.511e+00 0.000e+00 3.600e+02 9.836e-18
2.644e+00 1.511e+00 0.000e+00 3.600e+02 4.662e-17
2.833e+00 1.511e+00 0.000e+00 3.600e+02 7.588e-17
3.022e+00 1.511e+00 0.000e+00 3.600e+02 -1.019e-17
3.211e+00 1.511e+00 0.000e+00 3.600e+02 8.738e-17
3.400e+00 1.511e+00 0.000e+00 3.600e+02 1.104e-16
3.589e+00 1.511e+00 0.000e+00 3.600e+02 6.895e-17
3.777e+00 1.511e+00 0.000e+00 3.600e+02 1.877e-16
3.966e+00 1.511e+00 0.000e+00 3.600e+02 -3.956e-17
4.155e+00 1.511e+00 0.000e+00 3.600e+02 1.038e-16
4.344e+00 1.511e+00 0.000e+00 3.600e+02 6.474e-17
4.533e+00 1.511e+00 0.000e+00 3.600e+02 -2.243e-18
0.000e+00 1.700e+00 0.000e+00 3.600e+02 4.041e-17
1.889e-01 1.700e+00 0.000e+00 3.600e+02 5.807e-17
3.777e-01 1.700e+00 0.000e+00 3.600e+02 -1.552e-16
5.666e-01 1.700e+00 0.000e+00 3.600e+02 -2.327e-16
7.555e-01 1.700e+00 0.000e+00 3.600e+02 3.052e-17
9.443e-01 1.700e+00 0.000e+00 3.600e+02 -4.214e-16
1.133e+00 1.700e+00 0.000e+00 3.600e+02 -1.820e-16
1.322e+00 1.700e+00 0.000e+00 3.600e+02 -2.207e-16
1.511e+00 1.700e+00 0.000e+00 3.600e+02 -4.035e-16
1.700e+00 1.700e+00 0.000e+00 3.600e+02 -1.734e-16
1.889e+00 1.700e+00 0.000e+00 3.600e+02 -4.188e-17
2.078e+00 1.700e+00 0.000e+00 3.600e+02 -2.576e-16
2.266e+00 1.700e+00 0.000e+00 3.600e+02 -6.992e-17
2.455e+00 1.700e+00 0.000e+00 3.600e+02 9.836e-18
2.644e+00 1.700e+00 0.000e+00 3.600e+02 4.662e-17
2.833e+00 1.700e+00 0.000e+00 3.600e+02 7.588e-17
3.022e+00 1.700e+00 0.000e+00 3.600e+02 -1.019e-17
3.211e+00 1.700e+00 0.000e+00 3.600e+02 8.738e-17
3.400e+00 1.700e+00 0.000e+00 3.600e+02 1.104e-16
3.589e+00 1.700e+00 0.000e+00 3.600e+02 6.895e-17
3.777e+00 1.700e+00 0.000e+00 3.600e+02 1.877e-16
3.966e+00 1.700e+00 0.000e+00 3.600e+02 -3.956e-17
4.155e+00 1.700e+00 0.000e+00 3.600e+02 1.038e-16
4.344e+00 1.700e+00 0.000e+00 3.600e+02 6.474e-17
4.533e+00 1.700e+00 0.000e+00 3.600e+02 -2.243e-18
0.000e+00 1.889e+00 0.000e+00 3.600e+02 4.041e-17
1.889e-01 1.889e+00 0.000e+00 3.600e+02 5.807e-17
3.777e-01 1.889e+00 0.000e+00 3.600e+02 -1.552e-16
5.666e-01 1.889e+00 0.000e+00 3.600e+02 -2.327e-16
7.555e-01 1.889e+00 0.000e+00 3.600e+02 3.052e-17
9.443e-01 1.889e+00 0.000e+00 3.600e+02 -4.214e-16
1.133e+00 1.889e+00 0.000e+00 3.600e+02 -1.820e-16
1.322e+00 1.889e+00 0.000e+00 3.600e+02 -2.207e-16
1.511e+00 1.889e+00 0.000e+00 3.600e+02 -4.035e-16
1.700e+00 1.889e+00 0.000e+00 3.600e+02 -1.734e-16
1.889e+00 1.889e+00 0.000e+00 3.600e+02 -4.188e-17
2.078e+00 1.889e+00 0.000e+00 3.600e+02 -2.576e-16
2.266e+00 1.889e+00 0.000e+00 3.600e+02 -6.992e-17
2.455e+00 1.889e+00 0.000e+00 3.600e+02 9.836e-18
2.644e+00 1.889e+00 0.000e+00 3.600e+02 4.662e-17
2.833e+00 1.889e+00 0.000e+00 3.600e+02 7.588e-17
3.022e+00 1.889e+00 0.000e+00 3.600e+02 -1.019e-17
3.211e+00 1.889e+00 0.000e+00 3.600e+02 8.738e-17
3.400e+00 1.889e+00 0.000e+00 3.600e+02 1.104e-16
3.589e+00 1.889e+00 0.000e+00 3.600e+02 6.895e-17
3.777e+00 1.889e+00 0.000e+00 3.600e+02 1.877e-16
3.966e+00 1.889e+00 0.000e+00 3.600e+02 -3.956e-17
4.155e+00 1.889e+00 0.000e+00 3.600e+02 1.038e-16
4.344e+00 1.889e+00 0.000e+00 3.600e+02 6.474e-17
4.533e+00 1.889e+00 0.000e+00 3.600e+02 -2.243e-18
0.000e+00 2.078e+00 0.000e+00 3.600e+02 4.041e-17
1.889e-01 2.078e+00 0.000e+00 3.600e+02 5.807e-17
3.777e-01 2.078e+00 0.000e+00 3.600e+02 -1.552e-16
5.666e-01 2.078e+00 0.000e+00 3.600e+02 -2.327e-16
7.555e-01 2.078e+00 0.000e+00 3.600e+02 3.052e-17
9.443e-01 2.078e+00 0.000e+00 3.600e+02 -4.214e-16
1.133e+00 2.078e+00 0.000e+00 3.600e+02 -1.820e-16
1.322e+00 2.078e+00 0.000e+00 3.600e+02 -2.207e-16
1.511e+00 2.078e+00 0.000e+00 3.600e+02 -4.035e-16
1.700e+00 2.078e+00 0.000e+00 3.600e+02 -1.734e-16
1.889e+00 2.078e+00 0.000e+00 3.600e+02 -4.188e-17
2.078e+00 2.078e+00 0.000e+00 3.600e+02 -2.576e-16
2.266e+00 2.078e+00 0.000e+00 3.600e+02 -6.992e-17
2.455e+00 2.078e+00 0.000e+00 3.600e+02 9.836e-18
2.644e+00 2.078e+00 0.000e+00 3.600e+02 4.662e-17
2.833e+00 2.078e+00 0.000e+00 3.600e+02 7.588e-17
3.022e+00 2.078e+00 0.000e+00 3.600e+02 -1.019e-17
3.211e+00 2.078e+00 0.000e+00 3.600e+02 8.738e-17
3.400e+00 2.078e+00 0.000e+00 3.600e+02 1.104e-16
3.589e+00 2.078e+00 0.000e+00 3.600e+02 6.895e-17
3.777e+00 2.078e+00 0.000e+00 3.600e+02 1.877e-16
3.966e+00 2.078e+00 0.000e+00 3.600e+02 -3.956e-17
4.155e+00 2.078e+00 0.000e+00 3.600e+02 1.038e-16
4.344e+00 2.078e+00 0.000e+00 3.600e+02 6.474e-17
4.533e+00 2.078e+00 0.000e+00 3.600e+02 -2.243e-18
0.000e+00 2.266e+00 0.000e+00 3.600e+02 4.041e-17
1.889e-01 2.266e+00 0.000e+00 3.600e+02 5.807e-17
3.777e-01 2.266e+00 0.000e+00 3.600e+02 -1.552e-16
5.666e-01 2.266e+00 0.000e+00 3.600e+02 -2.327e-16
7.555e-01 2.266e+00 0.000e+00 3.600e+02 3.052e-17
9.443e-01 2.266e+00 0.000e+00 3.600e+02 -4.214e-16
1.133e+00 2.266e+00 0.000e+00 3.600e+02 -1.820e-16
1.322e+00 2.266e+00 0.000e+00 3.600e+02 -2.207e-16
1.511e+00 2.266e+00 0.000e+00 3.600e+02 -4.035e-16
1.700e+00 2.266e+00 0.000e+00 3.600e+02 -1.734e-16
1.889e+00 2.266e+00 0.000e+00 3.600e+02 -4.188e-17
2.078e+00 2.266e+00 0.000e+00 3.600e+02 -2.576e-16
2.266e+00 2.266e+00 0.000e+00 3.600e+02 -6.992e-17
2.455e+00 2.266e+00 0.000e+00 3.600e+02 9.836e-18
2.644e+00 2.266e+00 0.000e+00 3.600e+02 4.662e-17
2.833e+00 2.266e+00 0.000e+00 3.600e+02 7.588e-17
3.022e+00 2.266e+00 0.000e+00 3.600e+02 -1.019e-17
3.211e+00 2.266e+00 0.000e+00 3.600e+02 8.738e-17
3.400e+00 2.266e+00 0.000e+00 3.600e+02 1.104e-16
3.589e+00 2.266e+00 0.000e+00 3.600e+02 6.895e-17
3.777e+00 2.266e+00 0.000e+00 3.600e+02 1.877e-16
3.966e+00 2.266e+00 0.000e+00 3.600e+02 -3.956e-17
4.155e+00 2.266e+00 0.000e+00 3.600e+02 1.038e-16
4.344e+00 2.266e+00 0.000e+00 3.600e+02 6.474e-17
4.533e+00 2.266e+00 0.000e+00 3.600e+02 -2.243e-18
0.000e+00 2.455e+00 0.000e+00 3.600e+02 4.041e-17
1.889e-01 2.455e+00 0.000e+00 3.600e+02 5.807e-17
3.777e-01 2.455e+00 0.000e+00 3.600e+02 -1.552e-16
5.666e-01 2.455e+00 0.000e+00 3.600e+02 -2.327e-16
7.555e-01 2.455e+00 0.000e+00 3.600e+02 3.052e-17
9.443e-01 2.455e+00 0.000e+00 3.600e+02 -4.214e-16
1.133e+00 2.455e+00 0.000e+00 3.600e+02 -1.820e-16
1.322e+00 2.455e+00 0.000e+00 3.600e+02 -2.207e-16
1.511e+00 2.455e+00 0.000e+00 3.600e+02 -4.035e-16
1.700e+00 2.455e+00 0.000e+00 3.600e+02 -1.734e-16
1.889e+00 2.455e+00 0.000e+00 3.600e+02 -4.188e-17
2.078e+00 2.455e+00 0.000e+00 3.600e+02 -2.576e-16
2.266e+00 2.455e+00 0.000e+00 3.600e+02 -6.992e-17
2.455e+00 2.455e+00 0.000e+00 3.600e+02 9.836e-18
2.644e+00 2.455e+00 0.000e+00 3.600e+02 4.662e-17
2.833e+00 2.455e+00 0.000e+00 3.600e+02 7.588e-17
3.022e+00 2.455e+00 0.000e+00 3.600e+02 -1.019e-17
3.211e+00 2.455e+00 0.000e+00 3.600e+02 8.738e-17
3.400e+00 2.455e+00 0.000e+00 3.600e+02 1.104e-16
3.589e+00 2.455e+00 0.000e+00 3.600e+02 6.895e-17
3.777e+00 2.455e+00 0.000e+00 3.600e+02 1.877e-16
3.966e+00 2.455e+00 0.000e+00 3.600e+02 -3.956e-17
4.155e+00 2.455e+00 0.000e+00 3.600e+02 1.038e-16
4.344e+00 2.455e+00 0.000e+00 3.600e+02 6.474e-17
4.533e+00 2.455e+00 0.000e+00 3.600e+02 -2.243e-18
0.000e+00 2.644e+00 0.000e+00 3.600e+02 4.041e-17
1.889e-01 2.644e+00 0.000e+00 3.600e+02 5.807e-17
3.777e-01 2.644e+00 0.000e+00 3.600e+02 -1.552e-16
5.666e-01 2.644e+00 0.000e+00 3.600e+02 -2.327e-16
7.555e-01 2.644e+00 0.000e+00 3.600e+02 3.052e-17
9.443e-01 2.644e+00 0.000e+00 3.600e+02 -4.214e-16
1.133e+00 2.644e+00 0.000e+00 3.600e+02 -1.820e-16
1.322e+00 2.644e+00 0.000e+00 3.600e+02 -2.207e-16
1.511e+00 2.644e+00 0.000e+00 3.600e+02 -4.035e-16
1.700e+00 2.644e+00 0.000e+00 3.600e+02 -1.734e-16
1.889e+00 2.644e+00 0.000e+00 3.600e+02 -4.188e-17
2.078e+00 2.644e+00 0.000e+00 3.600e+02 -2.576e-16
2.266e+00 2.644e+00 0.000e+00 3.600e+02 -6.992e-17
2.455e+00 2.644e+00 0.000e+00 3.600e+02 9.836e-18
2.644e+00 2.644e+00 0.000e+00 3.600e+02 4.662e-17
2.833e+00 2.644e+00 0.000e+00 3.600e+02 7.588e-17
3.022e+00 2.644e+00 0.000e+00 3.600e+02 -1.019e-17
3.211e+00 2.644e+00 0.000e+00 3.600e+02 8.738e-17
3.400e+00 2.644e+00 0.000e+00 3.600e+02 1.104e-16
3.589e+00 2.644e+00 0.000e+00 3.600e+02 6.895e-17
3.777e+00 2.644e+00 0.000e+00 3.600e+02 1.877e-16
3.966e+00 2.644e+00 0.000e+00 3.600e+02 -3.956e-17
4.155e+00 2.644e+00 0.000e+00 3.600e+02 1.038e-16
4.344e+00 2.644e+00 0.000e+00 3.600e+02 6.474e-17
4.533e+00 2.644e+00 0.000e+00 3.600e+02 -2.243e-18
0.000e+00 2.833e+00 0.000e+00 3.600e+02 4.041e-17
1.889e-01 2.833e+00 0.000e+00 3.600e+02 5.807e-17
3.777e-01 2.833e+00 0.000e+00 3.600e+02 -1.552e-16
5.666e-01 2.833e+00 0.000e+00 3.600e+02 -2.327e-16
7.555e-01 2.833e+00 0.000e+00 3.600e+02 3.052e-17
9.443e-01 2.833e+00 0.000e+00 3.600e+02 -4.214e-16
1.133e+00 2.833e+00 0.000e+00 3.600e+02 -1.820e-16
1.322e+00 2.833e+00 0.000e+00 3.600e+02 -2.207e-16
1.511e+00 2.833e+00 0.000e+00 3.600e+02 -4.035e-16
1.700e+00 2.833e+00 0.000e+00 3.600e+02 -1.734e-16
1.889e+00 2.833e+00 0.000e+00 3.600e+02 -4.188e-17
2.078e+00 2.833e+00 0.000e+00 3.600e+02 -2.576e-16
2.266e+00 2.833e+00 0.000e+00 3.600e+02 -6.992e-17
2.455e+00 2.833e+00 0.000e+00 3.600e+02 9.836e-18
2.644e+00 2.833e+00 0.000e+00 3.600e+02 4.662e-17
2.833e+00 2.833e+00 0.000e+00 3.600e+02 7.588e-17
3.022e+00 2.833e+00 0.000e+00 3.600e+02 -1.019e-17
3.211e+00 2.833e+00 0.000e+00 3.600e+02 8.738e-17
3.400e+00 2.833e+00 0.000e+00 3.600e+02 1.104e-16
3.589e+00 2.833e+00 0.000e+00 3.600e+02 6.895e-17
3.777e+00 2.833e+00 0.000e+00 3.600e+02 1.877e-16
3.966e+00 2.833e+00 0.000e+00 3.600e+02 -3.956e-17
4.155e+00 2.833e+00 0.000e+00 3.600e+02 1.038e-16
4.344e+00 2.833e+00 0.000e+00 3.600e+02 6.474e-17
4.533e+00 2.833e+00 0.000e+00 3.600e+02 -2.243e-18
0.000e+00 3.022e+00 0.000e+00 3.600e+02 4.041e-17
1.889e-01 3.022e+00 0.000e+00 3.600e+02 5.807e-17
3.777e-01 3.022e+00 0.000e+00 3.600e+02 -1.552e-16
5.666e-01 3.022e+00 0.000e+00 3.600e+02 -2.327e-16
7.555e-01 3.022e+00 0.000e+00 3.600e+02 3.052e-17
9.443e-01 3.022e+00 0.000e+00 3.600e+02 -4.214e-16
1.133e+00 3.022e+00 0.000e+00 3.600e+02 -1.820e-16
1.322e+00 3.022e+00 0.000e+00 3.600e+02 -2.207e-16
1.511e+00 3.022e+00 0.000e+00 3.600e+02 -4.035e-16
1.700e+00 3.022e+00 0.000e+00 3.600e+02 -1.734e-16
1.889e+00 3.022e+00 0.000e+00 3.600e+02 -4.188e-17
2.078e+00 3.022e+00 0.000e+00 3.600e+02 -2.576e-16
2.266e+00 3.022e+00 0.000e+00 3.600e+02 -6.992e-17
2.455e+00 3.022e+00 0.000e+00 3.600e+02 9.836e-18
2.644e+00 3.022e+00 0.000e+00 3.600e+02 4.662e-17
2.833e+00 3.022e+00 0.000e+00 3.600e+02 7.588e-17
3.022e+00 3.022e+00 0.000e+00 3.600e+02 -1.019e-17
3.211e+00 3.022e+00 0.000e+00 3.600e+02 8.738e-17
3.400e+00 3.022e+00 0.000e+00 3.600e+02 1.104e-16
3.589e+00 3.022e+00 0.000e+00 3.600e+02 6.895e-17
3.777e+00 3.022e+00 0.000e+00 3.600e+02 1.877e-16
3.966e+00 3.022e+00 0.000e+00 3.600e+02 -3.956e-17
4.155e+00 3.022e+00 0.000e+00 3.600e+02 1.038e-16
4.344e+00 3.022e+00 0.000e+00 3.600e+02 6.474e-17
4.533e+00 3.022e+00 0.000e+00 3.600e+02 -2.243e-18
0.000e+00 3.211e+00 0.000e+00 3.600e+02 4.041e-17
1.889e-01 3.211e+00 0.000e+00 3.600e+02 5.807e-17
3.777e-01 3.211e+00 0.000e+00 3.600e+02 -1.552e-16
5.666e-01 3.211e+00 0.000e+00 3.600e+02 -2.327e-16
7.555e-01 3.211e+00 0.000e+00 3.600e+02 3.052e-17
9.443e-01 3.211e+00 0.000e+00 3.600e+02 -4.214e-16
1.133e+00 3.211e+00 0.000e+00 3.600e+02 -1.820e-16
1.322e+00 3.211e+00 0.000e+00 3.600e+02 -2.207e-16
1.511e+00 3.211e+00 0.000e+00 3.600e+02 -4.035e-16
1.700e+00 3.211e+00 0.000e+00 3.600e+02 -1.734e-16
1.889e+00 3.211e+00 0.000e+00 3.600e+02 -4.188e-17
2.078e+00 3.211e+00 0.000e+00 3.600e+02 -2.576e-16
2.266e+00 3.211e+00 0.000e+00 3.600e+02 -6.992e-17
2.455e+00 3.211e+00 0.000e+00 3.600e+02 9.836e-18
2.644e+00 3.211e+00 0.000e+00 3.600e+02 4.662e-17
2.833e+00 3.211e+00 0.000e+00 3.600e+02 7.588e-17
3.022e+00 3.211e+00 0.000e+00 3.600e+02 -1.019e-17
3.211e+00 3.211e+00 0.000e+00 3.600e+02 8.738e-17
3.400e+00 3.211e+00 0.000e+00 3.600e+02 1.104e-16
3.589e+00 3.211e+00 0.000e+00 3.600e+02 6.895e-17
3.777e+00 3.211e+00 0.000e+00 3.600e+02 1.877e-16
3.966e+00 3.211e+00 0.000e+00 3.600e+02 -3.956e-17
4.155e+00 3.211e+00 0.000e+00 3.600e+02 1.038e-16
4.344e+00 3.211e+00 0.000e+00 3.600e+02 6.474e-17
4.533e+00 3.211e+00 0.000e+00 3.600e+02 -2.243e-18
0.000e+00 3.400e+00 0.000e+00 3.600e+02 4.041e-17
1.889e-01 3.400e+00 0.000e+00 3.600e+02 5.807e-17
3.777e-01 3.400e+00 0.000e+00 3.600e+02 -1.552e-16
5.666e-01 3.400e+00 0.000e+00 3.600e+02 -2.327e-16
7.555e-01 3.400e+00 0.000e+00 3.600e+02 3.052e-17
9.443e-01 3.400e+00 0.000e+00 3.600e+02 -4.214e-16
1.133e+00 3.400e+00 0.000e+00 3.600e+02 -1.820e-16
1.322e+00 3.400e+00 0.000e+00 3.600e+02 -2.207e-16
1.511e+00 3.400e+00 0.000e+00 3.600e+02 -4.035e-16
1.700e+00 3.400e+00 0.000e+00 3.600e+02 -1.734e-16
1.889e+00 3.400e+00 0.000e+00 3.600e+02 -4.188e-17
2.078e+00 3.400e+00 0.000e+00 3.600e+02 -2.576e-16
2.266e+00 3.400e+00 0.000e+00 3.600e+02 -6.992e-17
2.455e+00 3.400e+00 0.000e+00 3.600e+02 9.836e-18
2.644e+00 3.400e+00 0.000e+00 3.600e+02 4.662e-17
2.833e+00 3.400e+00 0.000e+00 3.600e+02 7.588e-17
3.022e+00 3.400e+00 0.000e+00 3.600e+02 -1.019e-17
3.211e+00 3.400e+00 0.000e+00 3.600e+02 8.738e-17
3.400e+00 3.400e+00 0.000e+00 3.600e+02 1.104e-16
3.589e+00 3.400e+00 0.000e+00 3.600e+02 6.895e-17
3.777e+00 3.400e+00 0.000e+00 3.600e+02 1.877e-16
3.966e+00 3.400e+00 0.000e+00 3.600e+02 -3.956e-17
4.155e+00 3.400e+00 0.000e+00 3.600e+02 1.038e-16
4.344e+00 3.400e+00 0.000e+00 3.600e+02 6.474e-17
4.533e+00 3.400e+00 0.000e+00 3.600e+02 -2.243e-18
0.000e+00 3.589e+00 0.000e+00 3.600e+02 4.041e-17
1.889e-01 3.589e+00 0.000e+00 3.600e+02 5.807e-17
3.777e-01 3.589e+00 0.000e+00 3.600e+02 -1.552e-16
5.666e-01 3.589e+00 0.000e+00 3.600e+02 -2.327e-16
7.555e-01 3.589e+00 0.000e+00 3.600e+02 3.052e-17
9.443e-01 3.589e+00 0.000e+00 3.600e+02 -4.214e-16
1.133e+00 3.589e+00 0.000e+00 3.600e+02 -1.820e-16
1.322e+00 3.589e+00 0.000e+00 3.600e+02 -2.207e-16
1.511e+00 3.589e+00 0.000e+00 3.600e+02 -4.035e-16
1.700e+00 3.589e+00 0.000e+00 3.600e+02 -1.734e-16
1.889e+00 3.589e+00 0.000e+00 3.600e+02 -4.188e-17
2.078e+00 3.589e+00 0.000e+00 3.600e+02 -2.576e-16
2.266e+00 3.589e+00 0.000e+00 3.600e+02 -6.992e-17
2.455e+00 3.589e+00 0.000e+00 3.600e+02 9.836e-18
2.644e+00 3.589e+00 0.000e+00 3.600e+02 4.662e-17
2.833e+00 3.589e+00 0.000e+00 3.600e+02 7.588e-17
3.022e+00 3.589e+00 0.000e+00 3.600e+02 -1.019e-17
3.211e+00 3.589e+00 0.000e+00 3.600e+02 8.738e-17
3.400e+00 3.589e+00 0.000e+00 3.600e+02 1.104e-16
3.589e+00 3.589e+00 0.000e+00 3.600e+02 6.895e-17
3.777e+00 3.589e+00 0.000e+00 3.600e+02 1.877e-16
3.966e+00 3.589e+00 0.000e+00 3.600e+02 -3.956e-17
4.155e+00 3.589e+00 0.000e+00 3.600e+02 1.038e-16
4.344e+00 3.589e+00 0.000e+00 3.600e+02 6.474e-17
4.533e+00 3.589e+00 0.000e+00 3.600e+02 -2.243e-18
0.000e+00 3.777e+00 0.000e+00 3.600e+02 4.041e-17
1.889e-01 3.777e+00 0.000e+00 3.600e+02 5.807e-17
3.777e-01 3.777e+00 0.000e+00 3.600e+02 -1.552e-16
5.666e-01 3.777e+00 0.000e+00 3.600e+02 -2.327e-16
7.555e-01 3.777e+00 0.000e+00 3.600e+02 3.052e-17
9.443e-01 3.777e+00 0.000e+00 3.600e+02 -4.214e-16
1.133e+00 3.777e+00 0.000e+00 3.600e+02 -1.820e-16
1.322e+00 3.777e+00 0.000e+00 3.600e+02 -2.207e-16
1.511e+00 3.777e+00 0.000e+00 3.600e+02 -4.035e-16
1.700e+00 3.777e+00 0.000e+00 3.600e+02 -1.734e-16
1.889e+00 3.777e+00 0.000e+00 3.600e+02 -4.188e-17
2.078e+00 3.777e+00 0.000e+00 3.600e+02 -2.576e-16
2.266e+00 3.777e+00 0.000e+00 3.600e+02 -6.992e-17
2.455e+00 3.777e+00 0.000e+00 3.600e+02 9.836e-18
2.644e+00 3.777e+00 0.000e+00 3.600e+02 4.662e-17
2.833e+00 3.777e+00 0.000e+00 3.600e+02 7.588e-17
3.022e+00 3.777e+00 0.000e+00 3.600e+02 -1.019e-17
3.211e+00 3.777e+00 0.000e+00 3.600e+02 8.738e-17
3.400e+00 3.777e+00 0.000e+00 3.600e+02 1.104e-16
3.589e+00 3.777e+00 0.000e+00 3.600e+02 6.895e-17
3.777e+00 3.777e+00 0.000e+00 3.600e+02 1.877e-16
3.966e+00 3.777e+00 0.000e+00 3.600e+02 -3.956e-17
4.155e+00 3.777e+00 0.000e+00 3.600e+02 1.038e-16
4.344e+00 3.777e+00 0.000e+00 3.600e+02 6.474e-17
4.533e+00 3.777e+00 0.000e+00 3.600e+02 -2.243e-18
0.000e+00 3.966e+00 0.000e+00 3.600e+02 4.041e-17
1.889e-01 3.966e+00 0.000e+00 3.600e+02 5.807e-17
3.777e-01 3.966e+00 0.000e+00 3.600e+02 -1.552e-16
5.666e-01 3.966e+00 0.000e+00 3.600e+02 -2.327e-16
7.555e-01 3.966e+00 0.000e+00 3.600e+02 3.052e-17
9.443e-01 3.966e+00 0.000e+00 3.600e+02 -4.214e-16
1.133e+00 3.966e+00 0.000e+00 3.600e+02 -1.820e-16
1.322e+00 3.966e+00 0.000e+00 3.600e+02 -2.207e-16
1.511e+00 3.966e+00 0.000e+00 3.600e+02 -4.035e-16
1.700e+00 3.966e+00 0.000e+00 3.600e+02 -1.734e-16
1.889e+00 3.966e+00 0.000e+00 3.600e+02 -4.188e-17
2.078e+00 3.966e+00 0.000e+00 3.600e+02 -2.576e-16
2.266e+00 3.966e+00 0.000e+00 3.600e+02 -6.992e-17
2.455e+00 3.966e+00 0.000e+00 3.600e+02 9.836e-18
2.644e+00 3.966e+00 0.000e+00 3.600e+02 4.662e-17
2.833e+00 3.966e+00 0.000e+00 3.600e+02 7.588e-17
3.022e+00 3.966e+00 0.000e+00 3.600e+02 -1.019e-17
3.211e+00 3.966e+00 0.000e+00 3.600e+02 8.738e-17
3.400e+00 3.966e+00 0.000e+00 3.600e+02 1.104e-16
3.589e+00 3.966e+00 0.000e+00 3.600e+02 6.895e-17
3.777e+00 3.966e+00 0.000e+00 3.600e+02 1.877e-16
3.966e+00 3.966e+00 0.000e+00 3.600e+02 -3.956e-17
4.155e+00 3.966e+00 0.000e+00 3.600e+02 1.038e-16
4.344e+00 3.966e+00 0.000e+00 3.600e+02 6.474e-17
4.533e+00 3.966e+00 0.000e+00 3.600e+02 -2.243e-18
0.000e+00 4.155e+00 0.000e+00 3.600e+02 4.041e-17
1.889e-01 4.155e+00 0.000e+00 3.600e+02 5.807e-17
3.777e-01 4.155e+00 0.000e+00 3.600e+02 -1.552e-16
5.666e-01 4.155e+00 0.000e+00 3.600e+02 -2.327e-16
7.555e-01 4.155e+00 0.000e+00 3.600e+02 3.052e-17
9.443e-01 4.155e+00 0.000e+00 3.600e+02 -4.214e-16
1.133e+00 4.155e+00 0.000e+00 3.600e+02 -1.820e-16
1.322e+00 4.155e+00 0.000e+00 3.600e+02 -2.207e-16
1.511e+00 4.155e+00 0.000e+00 3.600e+02 -4.035e-16
1.700e+00 4.155e+00 0.000e+00 3.600e+02 -1.734e-16
1.889e+00 4.155e+00 0.000e+00 3.600e+02 -4.188e-17
2.078e+00 4.155e+00 0.000e+00 3.600e+02 -2.576e-16
2.266e+00 4.155e+00 0.000e+00 3.600e+02 -6.992e-17
2.455e+00 4.155e+00 0.000e+00 3.600e+02 9.836e-18
2.644e+00 4.155e+00 0.000e+00 3.600e+02 4.662e-17
2.833e+00 4.155e+00 0.000e+00 3.600e+02 7.588e-17
3.022e+00 4.155e+00 0.000e+00 3.600e+02 -1.019e-17
3.211e+00 4.155e+00 0.000e+00 3.600e+02 8.738e-17
3.400e+00 4.155e+00 0.000e+00 3.600e+02 1.104e-16
3.589e+00 4.155e+00 0.000e+00 3.600e+02 6.895e-17
3.777e+00 4.155e+00 0.000e+00 3.600e+02 1.877e-16
3.966e+00 4.155e+00 0.000e+00 3.600e+02 -3.956e-17
4.155e+00 4.155e+00 0.000e+00 3.600e+02 1.038e-16
4.344e+00 4.155e+00 0.000e+00 3.600e+02 6.474e-17
4.533e+00 4.155e+00 0.000e+00 3.600e+02 -2.243e-18
0.000e+00 4.344e+00 0.000e+00 3.600e+02 4.041e-17
1.889e-01 4.344e+00 0.000e+00 3.600e+02 5.807e-17
3.777e-01 4.344e+00 0.000e+00 3.600e+02 -1.552e-16
5.666e-01 4.344e+00 0.000e+00 3.600e+02 -2.327e-16
7.555e-01 4.344e+00 0.000e+00 3.600e+02 3.052e-17
9.443e-01 4.344e+00 0.000e+00 3.600e+02 -4.214e-16
1.133e+00 4.344e+00 0.000e+00 3.600e+02 -1.820e-16
1.322e+00 4.344e+00 0.000e+00 3.600e+02 -2.207e-16
1.511e+00 4.344e+00 0.000e+00 3.600e+02 -4.035e-16
1.700e+00 4.344e+00 0.000e+00 3.600e+02 -1.734e-16
1.889e+00 4.344e+00 0.000e+00 3.600e+02 -4.188e-17
2.078e+00 4.344e+00 0.000e+00 3.600e+02 -2.576e-16
2.266e+00 4.344e+00 0.000e+00 3.600e+02 -6.992e-17
2.455e+00 4.344e+00 0.000e+00 3.600e+02 9.836e-18
2.644e+00 4.344e+00 0.000e+00 3.600e+02 4.662e-17
2.833e+00 4.344e+00 0.000e+00 3.600e+02 7.588e-17