TITLE = "rho_fld_np"
VARIABLES = "X", "Y", "Z", "Real", "Imaginary"
ZONE I=25, J=25, K=75, F=POINT
0.000e+00 0.000e+00 0.000e+00 -1.423e-15 -7.656e-16
1.889e-01 0.000e+00 0.000e+00 -5.880e-16 -5.106e-16
3.777e-01 0.000e+00 0.000e+00 -6.932e-16 3.332e-16
5.666e-01 0.000e+00 0.000e+00 -7.564e-17 -2.174e-17
7.555e-01 0.000e+00 0.000e+00 -9.733e-16 -1.240e-16
9.443e-01 0.000e+00 0.000e+00 -5.585e-16 -2.152e-16
1.133e+00 0.000e+00 0.000e+00 -1.190e-15 -1.474e-16
1.322e+00 0.000e+00 0.000e+00 -9.437e-16 6.609e-17
1.511e+00 0.000e+00 0.000e+00 2.220e-16 -1.415e-17
1.700e+00 0.000e+00 0.000e+00 -1.776e-15 -1.438e-15
1.889e+00 0.000e+00 0.000e+00 0.000e+00 -1.148e-15
2.078e+00 0.000e+00 0.000e+00 1.776e-15 -2.222e-15
2.266e+00 0.000e+00 0.000e+00 -1.776e-15 3.882e-16
2.455e+00 0.000e+00 0.000e+00 0.000e+00 -3.606e-16
2.644e+00 0.000e+00 0.000e+00 -1.776e-15 -1.153e-15
2.833e+00 0.000e+00 0.000e+00 0.000e+00 -5.531e-17
3.022e+00 0.000e+00 0.000e+00 -8.882e-16 1.245e-16
3.211e+00 0.000e+00 0.000e+00 0.000e+00 -6.556e-16
3.400e+00 0.000e+00 0.000e+00 -1.305e-15 -1.532e-16
3.589e+00 0.000e+00 0.000e+00 -9.532e-16 6.107e-16
3.777e+00 0.000e+00 0.000e+00 -2.524e-16 -1.182e-16
3.966e+00 0.000e+00 0.000e+00 -9.615e-16 -1.003e-16
4.155e+00 0.000e+00 0.000e+00 1.541e-16 -7.257e-16
4.344e+00 0.000e+00 0.000e+00 -2.026e-16 -1.044e-15
4.533e+00 0.000e+00 0.000e+00 -7.416e-16 -7.597e-16
0.000e+00 1.889e-01 0.000e+00 -1.423e-15 -7.656e-16
1.889e-01 1.889e-01 0.000e+00 -5.880e-16 -5.106e-16
3.777e-01 1.889e-01 0.000e+00 -6.932e-16 3.332e-16
5.666e-01 1.889e-01 0.000e+00 -7.564e-17 -2.174e-17
7.555e-01 1.889e-01 0.000e+00 -9.733e-16 -1.240e-16
9.443e-01 1.889e-01 0.000e+00 -5.585e-16 -2.152e-16
1.133e+00 1.889e-01 0.000e+00 -1.190e-15 -1.474e-16
1.322e+00 1.889e-01 0.000e+00 -9.437e-16 6.609e-17
1.511e+00 1.889e-01 0.000e+00 2.220e-16 -1.415e-17
1.700e+00 1.889e-01 0.000e+00 -1.776e-15 -1.438e-15
1.889e+00 1.889e-01 0.000e+00 0.000e+00 -1.148e-15
2.078e+00 1.889e-01 0.000e+00 1.776e-15 -2.222e-15
2.266e+00 1.889e-01 0.000e+00 -1.776e-15 3.882e-16
2.455e+00 1.889e-01 0.000e+00 0.000e+00 -3.606e-16
2.644e+00 1.889e-01 0.000e+00 -1.776e-15 -1.153e-15
2.833e+00 1.889e-01 0.000e+00 0.000e+00 -5.531e-17
3.022e+00 1.889e-01 0.000e+00 -8.882e-16 1.245e-16
3.211e+00 1.889e-01 0.000e+00 0.000e+00 -6.556e-16
3.400e+00 1.889e-01 0.000e+00 -1.305e-15 -1.532e-16
3.589e+00 1.889e-01 0.000e+00 -9.532e-16 6.107e-16
3.777e+00 1.889e-01 0.000e+00 -2.524e-16 -1.182e-16
3.966e+00 1.889e-01 0.000e+00 -9.615e-16 -1.003e-16
4.155e+00 1.889e-01 0.000e+00 1.541e-16 -7.257e-16
4.344e+00 1.889e-01 0.000e+00 -2.026e-16 -1.044e-15
4.533e+00 1.889e-01 0.000e+00 -7.416e-16 -7.597e-16
0.000e+00 3.777e-01 0.000e+00 -1.423e-15 -7.656e-16
1.889e-01 3.777e-01 0.000e+00 -5.880e-16 -5.106e-16
3.777e-01 3.777e-01 0.000e+00 -6.932e-16 3.332e-16
5.666e-01 3.777e-01 0.000e+00 -7.564e-17 -2.174e-17
7.555e-01 3.777e-01 0.000e+00 -9.733e-16 -1.240e-16
9.443e-01 3.777e-01 0.000e+00 -5.585e-16 -2.152e-16
1.133e+00 3.777e-01 0.000e+00 -1.190e-15 -1.474e-16
1.322e+00 3.777e-01 0.000e+00 -9.437e-16 6.609e-17
1.511e+00 3.777e-01 0.000e+00 2.220e-16 -1.415e-17
1.700e+00 3.777e-01 0.000e+00 -1.776e-15 -1.438e-15
1.889e+00 3.777e-01 0.000e+00 0.000e+00 -1.148e-15
2.078e+00 3.777e-01 0.000e+00 1.776e-15 -2.222e-15
2.266e+00 3.777e-01 0.000e+00 -1.776e-15 3.882e-16
2.455e+00 3.777e-01 0.000e+00 0.000e+00 -3.606e-16
2.644e+00 3.777e-01 0.000e+00 -1.776e-15 -1.153e-15
2.833e+00 3.777e-01 0.000e+00 0.000e+00 -5.531e-17
3.022e+00 3.777e-01 0.000e+00 -8.882e-16 1.245e-16
3.211e+00 3.777e-01 0.000e+00 0.000e+00 -6.556e-16
3.400e+00 3.777e-01 0.000e+00 -1.305e-15 -1.532e-16
3.589e+00 3.777e-01 0.000e+00 -9.532e-16 6.107e-16
3.777e+00 3.777e-01 0.000e+00 -2.524e-16 -1.182e-16
3.966e+00 3.777e-01 0.000e+00 -9.615e-16 -1.003e-16
4.155e+00 3.777e-01 0.000e+00 1.541e-16 -7.257e-16
4.344e+00 3.777e-01 0.000e+00 -2.026e-16 -1.044e-15
4.533e+00 3.777e-01 0.000e+00 -7.416e-16 -7.597e-16
0.000e+00 5.666e-01 0.000e+00 -1.423e-15 -7.656e-16
1.889e-01 5.666e-01 0.000e+00 -5.880e-16 -5.106e-16
3.777e-01 5.666e-01 0.000e+00 -6.932e-16 3.332e-16
5.666e-01 5.666e-01 0.000e+00 -7.564e-17 -2.174e-17
7.555e-01 5.666e-01 0.000e+00 -9.733e-16 -1.240e-16
9.443e-01 5.666e-01 0.000e+00 -5.585e-16 -2.152e-16
1.133e+00 5.666e-01 0.000e+00 -1.190e-15 -1.474e-16
1.322e+00 5.666e-01 0.000e+00 -9.437e-16 6.609e-17
1.511e+00 5.666e-01 0.000e+00 2.220e-16 -1.415e-17
1.700e+00 5.666e-01 0.000e+00 -1.776e-15 -1.438e-15
1.889e+00 5.666e-01 0.000e+00 0.000e+00 -1.148e-15
2.078e+00 5.666e-01 0.000e+00 1.776e-15 -2.222e-15
2.266e+00 5.666e-01 0.000e+00 -1.776e-15 3.882e-16
2.455e+00 5.666e-01 0.000e+00 0.000e+00 -3.606e-16
2.644e+00 5.666e-01 0.000e+00 -1.776e-15 -1.153e-15
2.833e+00 5.666e-01 0.000e+00 0.000e+00 -5.531e-17
3.022e+00 5.666e-01 0.000e+00 -8.882e-16 1.245e-16
3.211e+00 5.666e-01 0.000e+00 0.000e+00 -6.556e-16
3.400e+00 5.666e-01 0.000e+00 -1.305e-15 -1.532e-16
3.589e+00 5.666e-01 0.000e+00 -9.532e-16 6.107e-16
3.777e+00 5.666e-01 0.000e+00 -2.524e-16 -1.182e-16
3.966e+00 5.666e-01 0.000e+00 -9.615e-16 -1.003e-16
4.155e+00 5.666e-01 0.000e+00 1.541e-16 -7.257e-16
4.344e+00 5.666e-01 0.000e+00 -2.026e-16 -1.044e-15
4.533e+00 5.666e-01 0.000e+00 -7.416e-16 -7.597e-16
0.000e+00 7.555e-01 0.000e+00 -1.423e-15 -7.656e-16
1.889e-01 7.555e-01 0.000e+00 -5.880e-16 -5.106e-16
3.777e-01 7.555e-01 0.000e+00 -6.932e-16 3.332e-16
5.666e-01 7.555e-01 0.000e+00 -7.564e-17 -2.174e-17
7.555e-01 7.555e-01 0.000e+00 -9.733e-16 -1.240e-16
9.443e-01 7.555e-01 0.000e+00 -5.585e-16 -2.152e-16
1.133e+00 7.555e-01 0.000e+00 -1.190e-15 -1.474e-16
1.322e+00 7.555e-01 0.000e+00 -9.437e-16 6.609e-17
1.511e+00 7.555e-01 0.000e+00 2.220e-16 -1.415e-17
1.700e+00 7.555e-01 0.000e+00 -1.776e-15 -1.438e-15
1.889e+00 7.555e-01 0.000e+00 0.000e+00 -1.148e-15
2.078e+00 7.555e-01 0.000e+00 1.776e-15 -2.222e-15
2.266e+00 7.555e-01 0.000e+00 -1.776e-15 3.882e-16
2.455e+00 7.555e-01 0.000e+00 0.000e+00 -3.606e-16
2.644e+00 7.555e-01 0.000e+00 -1.776e-15 -1.153e-15
2.833e+00 7.555e-01 0.000e+00 0.000e+00 -5.531e-17
3.022e+00 7.555e-01 0.000e+00 -8.882e-16 1.245e-16
3.211e+00 7.555e-01 0.000e+00 0.000e+00 -6.556e-16
3.400e+00 7.555e-01 0.000e+00 -1.305e-15 -1.532e-16
3.589e+00 7.555e-01 0.000e+00 -9.532e-16 6.107e-16
3.777e+00 7.555e-01 0.000e+00 -2.524e-16 -1.182e-16
3.966e+00 7.555e-01 0.000e+00 -9.615e-16 -1.003e-16
4.155e+00 7.555e-01 0.000e+00 1.541e-16 -7.257e-16
4.344e+00 7.555e-01 0.000e+00 -2.026e-16 -1.044e-15
4.533e+00 7.555e-01 0.000e+00 -7.416e-16 -7.597e-16
0.000e+00 9.443e-01 0.000e+00 -1.423e-15 -7.656e-16
1.889e-01 9.443e-01 0.000e+00 -5.880e-16 -5.106e-16
3.777e-01 9.443e-01 0.000e+00 -6.932e-16 3.332e-16
5.666e-01 9.443e-01 0.000e+00 -7.564e-17 -2.174e-17
7.555e-01 9.443e-01 0.000e+00 -9.733e-16 -1.240e-16
9.443e-01 9.443e-01 0.000e+00 -5.585e-16 -2.152e-16
1.133e+00 9.443e-01 0.000e+00 -1.190e-15 -1.474e-16
1.322e+00 9.443e-01 0.000e+00 -9.437e-16 6.609e-17
1.511e+00 9.443e-01 0.000e+00 2.220e-16 -1.415e-17
1.700e+00 9.443e-01 0.000e+00 -1.776e-15 -1.438e-15
1.889e+00 9.443e-01 0.000e+00 0.000e+00 -1.148e-15
2.078e+00 9.443e-01 0.000e+00 1.776e-15 -2.222e-15
2.266e+00 9.443e-01 0.000e+00 -1.776e-15 3.882e-16
2.455e+00 9.443e-01 0.000e+00 0.000e+00 -3.606e-16
2.644e+00 9.443e-01 0.000e+00 -1.776e-15 -1.153e-15
2.833e+00 9.443e-01 0.000e+00 0.000e+00 -5.531e-17
3.022e+00 9.443e-01 0.000e+00 -8.882e-16 1.245e-16
3.211e+00 9.443e-01 0.000e+00 0.000e+00 -6.556e-16
3.400e+00 9.443e-01 0.000e+00 -1.305e-15 -1.532e-16
3.589e+00 9.443e-01 0.000e+00 -9.532e-16 6.107e-16
3.777e+00 9.443e-01 0.000e+00 -2.524e-16 -1.182e-16
3.966e+00 9.443e-01 0.000e+00 -9.615e-16 -1.003e-16
4.155e+00 9.443e-01 0.000e+00 1.541e-16 -7.257e-16
4.344e+00 9.443e-01 0.000e+00 -2.026e-16 -1.044e-15
4.533e+00 9.443e-01 0.000e+00 -7.416e-16 -7.597e-16
0.000e+00 1.133e+00 0.000e+00 -1.423e-15 -7.656e-16
1.889e-01 1.133e+00 0.000e+00 -5.880e-16 -5.106e-16
3.777e-01 1.133e+00 0.000e+00 -6.932e-16 3.332e-16
5.666e-01 1.133e+00 0.000e+00 -7.564e-17 -2.174e-17
7.555e-01 1.133e+00 0.000e+00 -9.733e-16 -1.240e-16
9.443e-01 1.133e+00 0.000e+00 -5.585e-16 -2.152e-16
1.133e+00 1.133e+00 0.000e+00 -1.190e-15 -1.474e-16
1.322e+00 1.133e+00 0.000e+00 -9.437e-16 6.609e-17
1.511e+00 1.133e+00 0.000e+00 2.220e-16 -1.415e-17
1.700e+00 1.133e+00 0.000e+00 -1.776e-15 -1.438e-15
1.889e+00 1.133e+00 0.000e+00 0.000e+00 -1.148e-15
2.078e+00 1.133e+00 0.000e+00 1.776e-15 -2.222e-15
2.266e+00 1.133e+00 0.000e+00 -1.776e-15 3.882e-16
2.455e+00 1.133e+00 0.000e+00 0.000e+00 -3.606e-16
2.644e+00 1.133e+00 0.000e+00 -1.776e-15 -1.153e-15
2.833e+00 1.133e+00 0.000e+00 0.000e+00 -5.531e-17
3.022e+00 1.133e+00 0.000e+00 -8.882e-16 1.245e-16
3.211e+00 1.133e+00 0.000e+00 0.000e+00 -6.556e-16
3.400e+00 1.133e+00 0.000e+00 -1.305e-15 -1.532e-16
3.589e+00 1.133e+00 0.000e+00 -9.532e-16 6.107e-16
3.777e+00 1.133e+00 0.000e+00 -2.524e-16 -1.182e-16
3.966e+00 1.133e+00 0.000e+00 -9.615e-16 -1.003e-16
4.155e+00 1.133e+00 0.000e+00 1.541e-16 -7.257e-16
4.344e+00 1.133e+00 0.000e+00 -2.026e-16 -1.044e-15
4.533e+00 1.133e+00 0.000e+00 -7.416e-16 -7.597e-16
0.000e+00 1.322e+00 0.000e+00 -1.423e-15 -7.656e-16
1.889e-01 1.322e+00 0.000e+00 -5.880e-16 -5.106e-16
3.777e-01 1.322e+00 0.000e+00 -6.932e-16 3.332e-16
5.666e-01 1.322e+00 0.000e+00 -7.564e-17 -2.174e-17
7.555e-01 1.322e+00 0.000e+00 -9.733e-16 -1.240e-16
9.443e-01 1.322e+00 0.000e+00 -5.585e-16 -2.152e-16
1.133e+00 1.322e+00 0.000e+00 -1.190e-15 -1.474e-16
1.322e+00 1.322e+00 0.000e+00 -9.437e-16 6.609e-17
1.511e+00 1.322e+00 0.000e+00 2.220e-16 -1.415e-17
1.700e+00 1.322e+00 0.000e+00 -1.776e-15 -1.438e-15
1.889e+00 1.322e+00 0.000e+00 0.000e+00 -1.148e-15
2.078e+00 1.322e+00 0.000e+00 1.776e-15 -2.222e-15
2.266e+00 1.322e+00 0.000e+00 -1.776e-15 3.882e-16
2.455e+00 1.322e+00 0.000e+00 0.000e+00 -3.606e-16
2.644e+00 1.322e+00 0.000e+00 -1.776e-15 -1.153e-15
2.833e+00 1.322e+00 0.000e+00 0.000e+00 -5.531e-17
3.022e+00 1.322e+00 0.000e+00 -8.882e-16 1.245e-16
3.211e+00 1.322e+00 0.000e+00 0.000e+00 -6.556e-16
3.400e+00 1.322e+00 0.000e+00 -1.305e-15 -1.532e-16
3.589e+00 1.322e+00 0.000e+00 -9.532e-16 6.107e-16
3.777e+00 1.322e+00 0.000e+00 -2.524e-16 -1.182e-16
3.966e+00 1.322e+00 0.000e+00 -9.615e-16 -1.003e-16
4.155e+00 1.322e+00 0.000e+00 1.541e-16 -7.257e-16
4.344e+00 1.322e+00 0.000e+00 -2.026e-16 -1.044e-15
4.533e+00 1.322e+00 0.000e+00 -7.416e-16 -7.597e-16
0.000e+00 1.511e+00 0.000e+00 -1.423e-15 -7.656e-16
1.889e-01 1.511e+00 0.000e+00 -5.880e-16 -5.106e-16
3.777e-01 1.511e+00 0.000e+00 -6.932e-16 3.332e-16
5.666e-01 1.511e+00 0.000e+00 -7.564e-17 -2.174e-17
7.555e-01 1.511e+00 0.000e+00 -9.733e-16 -1.240e-16
9.443e-01 1.511e+00 0.000e+00 -5.585e-16 -2.152e-16
1.133e+00 1.511e+00 0.000e+00 -1.190e-15 -1.474e-16
1.322e+00 1.511e+00 0.000e+00 -9.437e-16 6.609e-17
1.511e+00 1.511e+00 0.000e+00 2.220e-16 -1.415e-17
1.700e+00 1.511e+00 0.000e+00 -1.776e-15 -1.438e-15
1.889e+00 1.511e+00 0.000e+00 0.000e+00 -1.148e-15
2.078e+00 1.511e+00 0.000e+00 1.776e-15 -2.222e-15
2.266e+00 1.511e+00 0.000e+00 -1.776e-15 3.882e-16
2.455e+00 1.511e+00 0.000e+00 0.000e+00 -3.606e-16
2.644e+00 1.511e+00 0.000e+00 -1.776e-15 -1.153e-15
2.833e+00 1.511e+00 0.000e+00 0.000e+00 -5.531e-17
3.022e+00 1.511e+00 0.000e+00 -8.882e-16 1.245e-16
3.211e+00 1.511e+00 0.000e+00 0.000e+00 -6.556e-16
3.400e+00 1.511e+00 0.000e+00 -1.305e-15 -1.532e-16
3.589e+00 1.511e+00 0.000e+00 -9.532e-16 6.107e-16
3.777e+00 1.511e+00 0.000e+00 -2.524e-16 -1.182e-16
3.966e+00 1.511e+00 0.000e+00 -9.615e-16 -1.003e-16
4.155e+00 1.511e+00 0.000e+00 1.541e-16 -7.257e-16
4.344e+00 1.511e+00 0.000e+00 -2.026e-16 -1.044e-15
4.533e+00 1.511e+00 0.000e+00 -7.416e-16 -7.597e-16
0.000e+00 1.700e+00 0.000e+00 -1.423e-15 -7.656e-16
1.889e-01 1.700e+00 0.000e+00 -5.880e-16 -5.106e-16
3.777e-01 1.700e+00 0.000e+00 -6.932e-16 3.332e-16
5.666e-01 1.700e+00 0.000e+00 -7.564e-17 -2.174e-17
7.555e-01 1.700e+00 0.000e+00 -9.733e-16 -1.240e-16
9.443e-01 1.700e+00 0.000e+00 -5.585e-16 -2.152e-16
1.133e+00 1.700e+00 0.000e+00 -1.190e-15 -1.474e-16
1.322e+00 1.700e+00 0.000e+00 -9.437e-16 6.609e-17
1.511e+00 1.700e+00 0.000e+00 2.220e-16 -1.415e-17
1.700e+00 1.700e+00 0.000e+00 -1.776e-15 -1.438e-15
1.889e+00 1.700e+00 0.000e+00 0.000e+00 -1.148e-15
2.078e+00 1.700e+00 0.000e+00 1.776e-15 -2.222e-15
2.266e+00 1.700e+00 0.000e+00 -1.776e-15 3.882e-16
2.455e+00 1.700e+00 0.000e+00 0.000e+00 -3.606e-16
2.644e+00 1.700e+00 0.000e+00 -1.776e-15 -1.153e-15
2.833e+00 1.700e+00 0.000e+00 0.000e+00 -5.531e-17
3.022e+00 1.700e+00 0.000e+00 -8.882e-16 1.245e-16
3.211e+00 1.700e+00 0.000e+00 0.000e+00 -6.556e-16
3.400e+00 1.700e+00 0.000e+00 -1.305e-15 -1.532e-16
3.589e+00 1.700e+00 0.000e+00 -9.532e-16 6.107e-16
3.777e+00 1.700e+00 0.000e+00 -2.524e-16 -1.182e-16
3.966e+00 1.700e+00 0.000e+00 -9.615e-16 -1.003e-16
4.155e+00 1.700e+00 0.000e+00 1.541e-16 -7.257e-16
4.344e+00 1.700e+00 0.000e+00 -2.026e-16 -1.044e-15
4.533e+00 1.700e+00 0.000e+00 -7.416e-16 -7.597e-16
0.000e+00 1.889e+00 0.000e+00 -1.423e-15 -7.656e-16
1.889e-01 1.889e+00 0.000e+00 -5.880e-16 -5.106e-16
3.777e-01 1.889e+00 0.000e+00 -6.932e-16 3.332e-16
5.666e-01 1.889e+00 0.000e+00 -7.564e-17 -2.174e-17
7.555e-01 1.889e+00 0.000e+00 -9.733e-16 -1.240e-16
9.443e-01 1.889e+00 0.000e+00 -5.585e-16 -2.152e-16
1.133e+00 1.889e+00 0.000e+00 -1.190e-15 -1.474e-16
1.322e+00 1.889e+00 0.000e+00 -9.437e-16 6.609e-17
1.511e+00 1.889e+00 0.000e+00 2.220e-16 -1.415e-17
1.700e+00 1.889e+00 0.000e+00 -1.776e-15 -1.438e-15
1.889e+00 1.889e+00 0.000e+00 0.000e+00 -1.148e-15
2.078e+00 1.889e+00 0.000e+00 1.776e-15 -2.222e-15
2.266e+00 1.889e+00 0.000e+00 -1.776e-15 3.882e-16
2.455e+00 1.889e+00 0.000e+00 0.000e+00 -3.606e-16
2.644e+00 1.889e+00 0.000e+00 -1.776e-15 -1.153e-15
2.833e+00 1.889e+00 0.000e+00 0.000e+00 -5.531e-17
3.022e+00 1.889e+00 0.000e+00 -8.882e-16 1.245e-16
3.211e+00 1.889e+00 0.000e+00 0.000e+00 -6.556e-16
3.400e+00 1.889e+00 0.000e+00 -1.305e-15 -1.532e-16
3.589e+00 1.889e+00 0.000e+00 -9.532e-16 6.107e-16
3.777e+00 1.889e+00 0.000e+00 -2.524e-16 -1.182e-16
3.966e+00 1.889e+00 0.000e+00 -9.615e-16 -1.003e-16
4.155e+00 1.889e+00 0.000e+00 1.541e-16 -7.257e-16
4.344e+00 1.889e+00 0.000e+00 -2.026e-16 -1.044e-15
4.533e+00 1.889e+00 0.000e+00 -7.416e-16 -7.597e-16
0.000e+00 2.078e+00 0.000e+00 -1.423e-15 -7.656e-16
1.889e-01 2.078e+00 0.000e+00 -5.880e-16 -5.106e-16
3.777e-01 2.078e+00 0.000e+00 -6.932e-16 3.332e-16
5.666e-01 2.078e+00 0.000e+00 -7.564e-17 -2.174e-17
7.555e-01 2.078e+00 0.000e+00 -9.733e-16 -1.240e-16
9.443e-01 2.078e+00 0.000e+00 -5.585e-16 -2.152e-16
1.133e+00 2.078e+00 0.000e+00 -1.190e-15 -1.474e-16
1.322e+00 2.078e+00 0.000e+00 -9.437e-16 6.609e-17
1.511e+00 2.078e+00 0.000e+00 2.220e-16 -1.415e-17
1.700e+00 2.078e+00 0.000e+00 -1.776e-15 -1.438e-15
1.889e+00 2.078e+00 0.000e+00 0.000e+00 -1.148e-15
2.078e+00 2.078e+00 0.000e+00 1.776e-15 -2.222e-15
2.266e+00 2.078e+00 0.000e+00 -1.776e-15 3.882e-16
2.455e+00 2.078e+00 0.000e+00 0.000e+00 -3.606e-16
2.644e+00 2.078e+00 0.000e+00 -1.776e-15 -1.153e-15
2.833e+00 2.078e+00 0.000e+00 0.000e+00 -5.531e-17
3.022e+00 2.078e+00 0.000e+00 -8.882e-16 1.245e-16
3.211e+00 2.078e+00 0.000e+00 0.000e+00 -6.556e-16
3.400e+00 2.078e+00 0.000e+00 -1.305e-15 -1.532e-16
3.589e+00 2.078e+00 0.000e+00 -9.532e-16 6.107e-16
3.777e+00 2.078e+00 0.000e+00 -2.524e-16 -1.182e-16
3.966e+00 2.078e+00 0.000e+00 -9.615e-16 -1.003e-16
4.155e+00 2.078e+00 0.000e+00 1.541e-16 -7.257e-16
4.344e+00 2.078e+00 0.000e+00 -2.026e-16 -1.044e-15
4.533e+00 2.078e+00 0.000e+00 -7.416e-16 -7.597e-16
0.000e+00 2.266e+00 0.000e+00 -1.423e-15 -7.656e-16
1.889e-01 2.266e+00 0.000e+00 -5.880e-16 -5.106e-16
3.777e-01 2.266e+00 0.000e+00 -6.932e-16 3.332e-16
5.666e-01 2.266e+00 0.000e+00 -7.564e-17 -2.174e-17
7.555e-01 2.266e+00 0.000e+00 -9.733e-16 -1.240e-16
9.443e-01 2.266e+00 0.000e+00 -5.585e-16 -2.152e-16
1.133e+00 2.266e+00 0.000e+00 -1.190e-15 -1.474e-16
1.322e+00 2.266e+00 0.000e+00 -9.437e-16 6.609e-17
1.511e+00 2.266e+00 0.000e+00 2.220e-16 -1.415e-17
1.700e+00 2.266e+00 0.000e+00 -1.776e-15 -1.438e-15
1.889e+00 2.266e+00 0.000e+00 0.000e+00 -1.148e-15
2.078e+00 2.266e+00 0.000e+00 1.776e-15 -2.222e-15
2.266e+00 2.266e+00 0.000e+00 -1.776e-15 3.882e-16
2.455e+00 2.266e+00 0.000e+00 0.000e+00 -3.606e-16
2.644e+00 2.266e+00 0.000e+00 -1.776e-15 -1.153e-15
2.833e+00 2.266e+00 0.000e+00 0.000e+00 -5.531e-17
3.022e+00 2.266e+00 0.000e+00 -8.882e-16 1.245e-16
3.211e+00 2.266e+00 0.000e+00 0.000e+00 -6.556e-16
3.400e+00 2.266e+00 0.000e+00 -1.305e-15 -1.532e-16
3.589e+00 2.266e+00 0.000e+00 -9.532e-16 6.107e-16
3.777e+00 2.266e+00 0.000e+00 -2.524e-16 -1.182e-16
3.966e+00 2.266e+00 0.000e+00 -9.615e-16 -1.003e-16
4.155e+00 2.266e+00 0.000e+00 1.541e-16 -7.257e-16
4.344e+00 2.266e+00 0.000e+00 -2.026e-16 -1.044e-15
4.533e+00 2.266e+00 0.000e+00 -7.416e-16 -7.597e-16
0.000e+00 2.455e+00 0.000e+00 -1.423e-15 -7.656e-16
1.889e-01 2.455e+00 0.000e+00 -5.880e-16 -5.106e-16
3.777e-01 2.455e+00 0.000e+00 -6.932e-16 3.332e-16
5.666e-01 2.455e+00 0.000e+00 -7.564e-17 -2.174e-17
7.555e-01 2.455e+00 0.000e+00 -9.733e-16 -1.240e-16
9.443e-01 2.455e+00 0.000e+00 -5.585e-16 -2.152e-16
1.133e+00 2.455e+00 0.000e+00 -1.190e-15 -1.474e-16
1.322e+00 2.455e+00 0.000e+00 -9.437e-16 6.609e-17
1.511e+00 2.455e+00 0.000e+00 2.220e-16 -1.415e-17
1.700e+00 2.455e+00 0.000e+00 -1.776e-15 -1.438e-15
1.889e+00 2.455e+00 0.000e+00 0.000e+00 -1.148e-15
2.078e+00 2.455e+00 0.000e+00 1.776e-15 -2.222e-15
2.266e+00 2.455e+00 0.000e+00 -1.776e-15 3.882e-16
2.455e+00 2.455e+00 0.000e+00 0.000e+00 -3.606e-16
2.644e+00 2.455e+00 0.000e+00 -1.776e-15 -1.153e-15
2.833e+00 2.455e+00 0.000e+00 0.000e+00 -5.531e-17
3.022e+00 2.455e+00 0.000e+00 -8.882e-16 1.245e-16
3.211e+00 2.455e+00 0.000e+00 0.000e+00 -6.556e-16
3.400e+00 2.455e+00 0.000e+00 -1.305e-15 -1.532e-16
3.589e+00 2.455e+00 0.000e+00 -9.532e-16 6.107e-16
3.777e+00 2.455e+00 0.000e+00 -2.524e-16 -1.182e-16
3.966e+00 2.455e+00 0.000e+00 -9.615e-16 -1.003e-16
4.155e+00 2.455e+00 0.000e+00 1.541e-16 -7.257e-16
4.344e+00 2.455e+00 0.000e+00 -2.026e-16 -1.044e-15
4.533e+00 2.455e+00 0.000e+00 -7.416e-16 -7.597e-16
0.000e+00 2.644e+00 0.000e+00 -1.423e-15 -7.656e-16
1.889e-01 2.644e+00 0.000e+00 -5.880e-16 -5.106e-16
3.777e-01 2.644e+00 0.000e+00 -6.932e-16 3.332e-16
5.666e-01 2.644e+00 0.000e+00 -7.564e-17 -2.174e-17
7.555e-01 2.644e+00 0.000e+00 -9.733e-16 -1.240e-16
9.443e-01 2.644e+00 0.000e+00 -5.585e-16 -2.152e-16
1.133e+00 2.644e+00 0.000e+00 -1.190e-15 -1.474e-16
1.322e+00 2.644e+00 0.000e+00 -9.437e-16 6.609e-17
1.511e+00 2.644e+00 0.000e+00 2.220e-16 -1.415e-17
1.700e+00 2.644e+00 0.000e+00 -1.776e-15 -1.438e-15
1.889e+00 2.644e+00 0.000e+00 0.000e+00 -1.148e-15
2.078e+00 2.644e+00 0.000e+00 1.776e-15 -2.222e-15
2.266e+00 2.644e+00 0.000e+00 -1.776e-15 3.882e-16
2.455e+00 2.644e+00 0.000e+00 0.000e+00 -3.606e-16
2.644e+00 2.644e+00 0.000e+00 -1.776e-15 -1.153e-15
2.833e+00 2.644e+00 0.000e+00 0.000e+00 -5.531e-17
3.022e+00 2.644e+00 0.000e+00 -8.882e-16 1.245e-16
3.211e+00 2.644e+00 0.000e+00 0.000e+00 -6.556e-16
3.400e+00 2.644e+00 0.000e+00 -1.305e-15 -1.532e-16
3.589e+00 2.644e+00 0.000e+00 -9.532e-16 6.107e-16
3.777e+00 2.644e+00 0.000e+00 -2.524e-16 -1.182e-16
3.966e+00 2.644e+00 0.000e+00 -9.615e-16 -1.003e-16
4.155e+00 2.644e+00 0.000e+00 1.541e-16 -7.257e-16
4.344e+00 2.644e+00 0.000e+00 -2.026e-16 -1.044e-15
4.533e+00 2.644e+00 0.000e+00 -7.416e-16 -7.597e-16
0.000e+00 2.833e+00 0.000e+00 -1.423e-15 -7.656e-16
1.889e-01 2.833e+00 0.000e+00 -5.880e-16 -5.106e-16
3.777e-01 2.833e+00 0.000e+00 -6.932e-16 3.332e-16
5.666e-01 2.833e+00 0.000e+00 -7.564e-17 -2.174e-17
7.555e-01 2.833e+00 0.000e+00 -9.733e-16 -1.240e-16
9.443e-01 2.833e+00 0.000e+00 -5.585e-16 -2.152e-16
1.133e+00 2.833e+00 0.000e+00 -1.190e-15 -1.474e-16
1.322e+00 2.833e+00 0.000e+00 -9.437e-16 6.609e-17
1.511e+00 2.833e+00 0.000e+00 2.220e-16 -1.415e-17
1.700e+00 2.833e+00 0.000e+00 -1.776e-15 -1.438e-15
1.889e+00 2.833e+00 0.000e+00 0.000e+00 -1.148e-15
2.078e+00 2.833e+00 0.000e+00 1.776e-15 -2.222e-15
2.266e+00 2.833e+00 0.000e+00 -1.776e-15 3.882e-16
2.455e+00 2.833e+00 0.000e+00 0.000e+00 -3.606e-16
2.644e+00 2.833e+00 0.000e+00 -1.776e-15 -1.153e-15
2.833e+00 2.833e+00 0.000e+00 0.000e+00 -5.531e-17
3.022e+00 2.833e+00 0.000e+00 -8.882e-16 1.245e-16
3.211e+00 2.833e+00 0.000e+00 0.000e+00 -6.556e-16
3.400e+00 2.833e+00 0.000e+00 -1.305e-15 -1.532e-16
3.589e+00 2.833e+00 0.000e+00 -9.532e-16 6.107e-16
3.777e+00 2.833e+00 0.000e+00 -2.524e-16 -1.182e-16
3.966e+00 2.833e+00 0.000e+00 -9.615e-16 -1.003e-16
4.155e+00 2.833e+00 0.000e+00 1.541e-16 -7.257e-16
4.344e+00 2.833e+00 0.000e+00 -2.026e-16 -1.044e-15
4.533e+00 2.833e+00 0.000e+00 -7.416e-16 -7.597e-16
0.000e+00 3.022e+00 0.000e+00 -1.423e-15 -7.656e-16
1.889e-01 3.022e+00 0.000e+00 -5.880e-16 -5.106e-16
3.777e-01 3.022e+00 0.000e+00 -6.932e-16 3.332e-16
5.666e-01 3.022e+00 0.000e+00 -7.564e-17 -2.174e-17
7.555e-01 3.022e+00 0.000e+00 -9.733e-16 -1.240e-16
9.443e-01 3.022e+00 0.000e+00 -5.585e-16 -2.152e-16
1.133e+00 3.022e+00 0.000e+00 -1.190e-15 -1.474e-16
1.322e+00 3.022e+00 0.000e+00 -9.437e-16 6.609e-17
1.511e+00 3.022e+00 0.000e+00 2.220e-16 -1.415e-17
1.700e+00 3.022e+00 0.000e+00 -1.776e-15 -1.438e-15
1.889e+00 3.022e+00 0.000e+00 0.000e+00 -1.148e-15
2.078e+00 3.022e+00 0.000e+00 1.776e-15 -2.222e-15
2.266e+00 3.022e+00 0.000e+00 -1.776e-15 3.882e-16
2.455e+00 3.022e+00 0.000e+00 0.000e+00 -3.606e-16
2.644e+00 3.022e+00 0.000e+00 -1.776e-15 -1.153e-15
2.833e+00 3.022e+00 0.000e+00 0.000e+00 -5.531e-17
3.022e+00 3.022e+00 0.000e+00 -8.882e-16 1.245e-16
3.211e+00 3.022e+00 0.000e+00 0.000e+00 -6.556e-16
3.400e+00 3.022e+00 0.000e+00 -1.305e-15 -1.532e-16
3.589e+00 3.022e+00 0.000e+00 -9.532e-16 6.107e-16
3.777e+00 3.022e+00 0.000e+00 -2.524e-16 -1.182e-16
3.966e+00 3.022e+00 0.000e+00 -9.615e-16 -1.003e-16
4.155e+00 3.022e+00 0.000e+00 1.541e-16 -7.257e-16
4.344e+00 3.022e+00 0.000e+00 -2.026e-16 -1.044e-15
4.533e+00 3.022e+00 0.000e+00 -7.416e-16 -7.597e-16
0.000e+00 3.211e+00 0.000e+00 -1.423e-15 -7.656e-16
1.889e-01 3.211e+00 0.000e+00 -5.880e-16 -5.106e-16
3.777e-01 3.211e+00 0.000e+00 -6.932e-16 3.332e-16
5.666e-01 3.211e+00 0.000e+00 -7.564e-17 -2.174e-17
7.555e-01 3.211e+00 0.000e+00 -9.733e-16 -1.240e-16
9.443e-01 3.211e+00 0.000e+00 -5.585e-16 -2.152e-16
1.133e+00 3.211e+00 0.000e+00 -1.190e-15 -1.474e-16
1.322e+00 3.211e+00 0.000e+00 -9.437e-16 6.609e-17
1.511e+00 3.211e+00 0.000e+00 2.220e-16 -1.415e-17
1.700e+00 3.211e+00 0.000e+00 -1.776e-15 -1.438e-15
1.889e+00 3.211e+00 0.000e+00 0.000e+00 -1.148e-15
2.078e+00 3.211e+00 0.000e+00 1.776e-15 -2.222e-15
2.266e+00 3.211e+00 0.000e+00 -1.776e-15 3.882e-16
2.455e+00 3.211e+00 0.000e+00 0.000e+00 -3.606e-16
2.644e+00 3.211e+00 0.000e+00 -1.776e-15 -1.153e-15
2.833e+00 3.211e+00 0.000e+00 0.000e+00 -5.531e-17
3.022e+00 3.211e+00 0.000e+00 -8.882e-16 1.245e-16
3.211e+00 3.211e+00 0.000e+00 0.000e+00 -6.556e-16
3.400e+00 3.211e+00 0.000e+00 -1.305e-15 -1.532e-16
3.589e+00 3.211e+00 0.000e+00 -9.532e-16 6.107e-16
3.777e+00 3.211e+00 0.000e+00 -2.524e-16 -1.182e-16
3.966e+00 3.211e+00 0.000e+00 -9.615e-16 -1.003e-16
4.155e+00 3.211e+00 0.000e+00 1.541e-16 -7.257e-16
4.344e+00 3.211e+00 0.000e+00 -2.026e-16 -1.044e-15
4.533e+00 3.211e+00 0.000e+00 -7.416e-16 -7.597e-16
0.000e+00 3.400e+00 0.000e+00 -1.423e-15 -7.656e-16
1.889e-01 3.400e+00 0.000e+00 -5.880e-16 -5.106e-16
3.777e-01 3.400e+00 0.000e+00 -6.932e-16 3.332e-16
5.666e-01 3.400e+00 0.000e+00 -7.564e-17 -2.174e-17
7.555e-01 3.400e+00 0.000e+00 -9.733e-16 -1.240e-16
9.443e-01 3.400e+00 0.000e+00 -5.585e-16 -2.152e-16
1.133e+00 3.400e+00 0.000e+00 -1.190e-15 -1.474e-16
1.322e+00 3.400e+00 0.000e+00 -9.437e-16 6.609e-17
1.511e+00 3.400e+00 0.000e+00 2.220e-16 -1.415e-17
1.700e+00 3.400e+00 0.000e+00 -1.776e-15 -1.438e-15
1.889e+00 3.400e+00 0.000e+00 0.000e+00 -1.148e-15
2.078e+00 3.400e+00 0.000e+00 1.776e-15 -2.222e-15
2.266e+00 3.400e+00 0.000e+00 -1.776e-15 3.882e-16
2.455e+00 3.400e+00 0.000e+00 0.000e+00 -3.606e-16
2.644e+00 3.400e+00 0.000e+00 -1.776e-15 -1.153e-15
2.833e+00 3.400e+00 0.000e+00 0.000e+00 -5.531e-17
3.022e+00 3.400e+00 0.000e+00 -8.882e-16 1.245e-16
3.211e+00 3.400e+00 0.000e+00 0.000e+00 -6.556e-16
3.400e+00 3.400e+00 0.000e+00 -1.305e-15 -1.532e-16
3.589e+00 3.400e+00 0.000e+00 -9.532e-16 6.107e-16
3.777e+00 3.400e+00 0.000e+00 -2.524e-16 -1.182e-16
3.966e+00 3.400e+00 0.000e+00 -9.615e-16 -1.003e-16
4.155e+00 3.400e+00 0.000e+00 1.541e-16 -7.257e-16
4.344e+00 3.400e+00 0.000e+00 -2.026e-16 -1.044e-15
4.533e+00 3.400e+00 0.000e+00 -7.416e-16 -7.597e-16
0.000e+00 3.589e+00 0.000e+00 -1.423e-15 -7.656e-16
1.889e-01 3.589e+00 0.000e+00 -5.880e-16 -5.106e-16
3.777e-01 3.589e+00 0.000e+00 -6.932e-16 3.332e-16
5.666e-01 3.589e+00 0.000e+00 -7.564e-17 -2.174e-17
7.555e-01 3.589e+00 0.000e+00 -9.733e-16 -1.240e-16
9.443e-01 3.589e+00 0.000e+00 -5.585e-16 -2.152e-16
1.133e+00 3.589e+00 0.000e+00 -1.190e-15 -1.474e-16
1.322e+00 3.589e+00 0.000e+00 -9.437e-16 6.609e-17
1.511e+00 3.589e+00 0.000e+00 2.220e-16 -1.415e-17
1.700e+00 3.589e+00 0.000e+00 -1.776e-15 -1.438e-15
1.889e+00 3.589e+00 0.000e+00 0.000e+00 -1.148e-15
2.078e+00 3.589e+00 0.000e+00 1.776e-15 -2.222e-15
2.266e+00 3.589e+00 0.000e+00 -1.776e-15 3.882e-16
2.455e+00 3.589e+00 0.000e+00 0.000e+00 -3.606e-16
2.644e+00 3.589e+00 0.000e+00 -1.776e-15 -1.153e-15
2.833e+00 3.589e+00 0.000e+00 0.000e+00 -5.531e-17
3.022e+00 3.589e+00 0.000e+00 -8.882e-16 1.245e-16
3.211e+00 3.589e+00 0.000e+00 0.000e+00 -6.556e-16
3.400e+00 3.589e+00 0.000e+00 -1.305e-15 -1.532e-16
3.589e+00 3.589e+00 0.000e+00 -9.532e-16 6.107e-16
3.777e+00 3.589e+00 0.000e+00 -2.524e-16 -1.182e-16
3.966e+00 3.589e+00 0.000e+00 -9.615e-16 -1.003e-16
4.155e+00 3.589e+00 0.000e+00 1.541e-16 -7.257e-16
4.344e+00 3.589e+00 0.000e+00 -2.026e-16 -1.044e-15
4.533e+00 3.589e+00 0.000e+00 -7.416e-16 -7.597e-16
0.000e+00 3.777e+00 0.000e+00 -1.423e-15 -7.656e-16
1.889e-01 3.777e+00 0.000e+00 -5.880e-16 -5.106e-16
3.777e-01 3.777e+00 0.000e+00 -6.932e-16 3.332e-16
5.666e-01 3.777e+00 0.000e+00 -7.564e-17 -2.174e-17
7.555e-01 3.777e+00 0.000e+00 -9.733e-16 -1.240e-16
9.443e-01 3.777e+00 0.000e+00 -5.585e-16 -2.152e-16
1.133e+00 3.777e+00 0.000e+00 -1.190e-15 -1.474e-16
1.322e+00 3.777e+00 0.000e+00 -9.437e-16 6.609e-17
1.511e+00 3.777e+00 0.000e+00 2.220e-16 -1.415e-17
1.700e+00 3.777e+00 0.000e+00 -1.776e-15 -1.438e-15
1.889e+00 3.777e+00 0.000e+00 0.000e+00 -1.148e-15
2.078e+00 3.777e+00 0.000e+00 1.776e-15 -2.222e-15
2.266e+00 3.777e+00 0.000e+00 -1.776e-15 3.882e-16
2.455e+00 3.777e+00 0.000e+00 0.000e+00 -3.606e-16
2.644e+00 3.777e+00 0.000e+00 -1.776e-15 -1.153e-15
2.833e+00 3.777e+00 0.000e+00 0.000e+00 -5.531e-17
3.022e+00 3.777e+00 0.000e+00 -8.882e-16 1.245e-16
3.211e+00 3.777e+00 0.000e+00 0.000e+00 -6.556e-16
3.400e+00 3.777e+00 0.000e+00 -1.305e-15 -1.532e-16
3.589e+00 3.777e+00 0.000e+00 -9.532e-16 6.107e-16
3.777e+00 3.777e+00 0.000e+00 -2.524e-16 -1.182e-16
3.966e+00 3.777e+00 0.000e+00 -9.615e-16 -1.003e-16
4.155e+00 3.777e+00 0.000e+00 1.541e-16 -7.257e-16
4.344e+00 3.777e+00 0.000e+00 -2.026e-16 -1.044e-15
4.533e+00 3.777e+00 0.000e+00 -7.416e-16 -7.597e-16
0.000e+00 3.966e+00 0.000e+00 -1.423e-15 -7.656e-16
1.889e-01 3.966e+00 0.000e+00 -5.880e-16 -5.106e-16
3.777e-01 3.966e+00 0.000e+00 -6.932e-16 3.332e-16
5.666e-01 3.966e+00 0.000e+00 -7.564e-17 -2.174e-17
7.555e-01 3.966e+00 0.000e+00 -9.733e-16 -1.240e-16
9.443e-01 3.966e+00 0.000e+00 -5.585e-16 -2.152e-16
1.133e+00 3.966e+00 0.000e+00 -1.190e-15 -1.474e-16
1.322e+00 3.966e+00 0.000e+00 -9.437e-16 6.609e-17
1.511e+00 3.966e+00 0.000e+00 2.220e-16 -1.415e-17
1.700e+00 3.966e+00 0.000e+00 -1.776e-15 -1.438e-15
1.889e+00 3.966e+00 0.000e+00 0.000e+00 -1.148e-15
2.078e+00 3.966e+00 0.000e+00 1.776e-15 -2.222e-15
2.266e+00 3.966e+00 0.000e+00 -1.776e-15 3.882e-16
2.455e+00 3.966e+00 0.000e+00 0.000e+00 -3.606e-16
2.644e+00 3.966e+00 0.000e+00 -1.776e-15 -1.153e-15
2.833e+00 3.966e+00 0.000e+00 0.000e+00 -5.531e-17
3.022e+00 3.966e+00 0.000e+00 -8.882e-16 1.245e-16
3.211e+00 3.966e+00 0.000e+00 0.000e+00 -6.556e-16
3.400e+00 3.966e+00 0.000e+00 -1.305e-15 -1.532e-16
3.589e+00 3.966e+00 0.000e+00 -9.532e-16 6.107e-16
3.777e+00 3.966e+00 0.000e+00 -2.524e-16 -1.182e-16
3.966e+00 3.966e+00 0.000e+00 -9.615e-16 -1.003e-16
4.155e+00 3.966e+00 0.000e+00 1.541e-16 -7.257e-16
4.344e+00 3.966e+00 0.000e+00 -2.026e-16 -1.044e-15
4.533e+00 3.966e+00 0.000e+00 -7.416e-16 -7.597e-16
0.000e+00 4.155e+00 0.000e+00 -1.423e-15 -7.656e-16
1.889e-01 4.155e+00 0.000e+00 -5.880e-16 -5.106e-16
3.777e-01 4.155e+00 0.000e+00 -6.932e-16 3.332e-16
5.666e-01 4.155e+00 0.000e+00 -7.564e-17 -2.174e-17
7.555e-01 4.155e+00 0.000e+00 -9.733e-16 -1.240e-16
9.443e-01 4.155e+00 0.000e+00 -5.585e-16 -2.152e-16
1.133e+00 4.155e+00 0.000e+00 -1.190e-15 -1.474e-16
1.322e+00 4.155e+00 0.000e+00 -9.437e-16 6.609e-17
1.511e+00 4.155e+00 0.000e+00 2.220e-16 -1.415e-17
1.700e+00 4.155e+00 0.000e+00 -1.776e-15 -1.438e-15
1.889e+00 4.155e+00 0.000e+00 0.000e+00 -1.148e-15
2.078e+00 4.155e+00 0.000e+00 1.776e-15 -2.222e-15
2.266e+00 4.155e+00 0.000e+00 -1.776e-15 3.882e-16
2.455e+00 4.155e+00 0.000e+00 0.000e+00 -3.606e-16
2.644e+00 4.155e+00 0.000e+00 -1.776e-15 -1.153e-15
2.833e+00 4.155e+00 0.000e+00 0.000e+00 -5.531e-17
3.022e+00 4.155e+00 0.000e+00 -8.882e-16 1.245e-16
3.211e+00 4.155e+00 0.000e+00 0.000e+00 -6.556e-16
3.400e+00 4.155e+00 0.000e+00 -1.305e-15 -1.532e-16
3.589e+00 4.155e+00 0.000e+00 -9.532e-16 6.107e-16
3.777e+00 4.155e+00 0.000e+00 -2.524e-16 -1.182e-16
3.966e+00 4.155e+00 0.000e+00 -9.615e-16 -1.003e-16
4.155e+00 4.155e+00 0.000e+00 1.541e-16 -7.257e-16
4.344e+00 4.155e+00 0.000e+00 -2.026e-16 -1.044e-15
4.533e+00 4.155e+00 0.000e+00 -7.416e-16 -7.597e-16
0.000e+00 4.344e+00 0.000e+00 -1.423e-15 -7.656e-16
1.889e-01 4.344e+00 0.000e+00 -5.880e-16 -5.106e-16
3.777e-01 4.344e+00 0.000e+00 -6.932e-16 3.332e-16
5.666e-01 4.344e+00 0.000e+00 -7.564e-17 -2.174e-17
7.555e-01 4.344e+00 0.000e+00 -9.733e-16 -1.240e-16