TITLE = "rhodb"
VARIABLES = "X", "Y", "Z", "Real", "Imaginary"
ZONE I=25, J=25, K=75, F=POINT
0.000e+00 0.000e+00 0.000e+00 8.676e-04 -8.058e-15
1.889e-01 0.000e+00 0.000e+00 8.612e-04 2.511e-14
3.777e-01 0.000e+00 0.000e+00 8.420e-04 9.350e-15
5.666e-01 0.000e+00 0.000e+00 8.102e-04 -8.204e-15
7.555e-01 0.000e+00 0.000e+00 7.664e-04 2.268e-14
9.443e-01 0.000e+00 0.000e+00 7.120e-04 -1.318e-14
1.133e+00 0.000e+00 0.000e+00 6.493e-04 2.178e-14
1.322e+00 0.000e+00 0.000e+00 5.821e-04 1.870e-14
1.511e+00 0.000e+00 0.000e+00 5.148e-04 -1.491e-14
1.700e+00 0.000e+00 0.000e+00 4.527e-04 3.040e-14
1.889e+00 0.000e+00 0.000e+00 4.009e-04 -1.356e-14
2.078e+00 0.000e+00 0.000e+00 3.636e-04 6.526e-15
2.266e+00 0.000e+00 0.000e+00 3.442e-04 3.034e-15
2.455e+00 0.000e+00 0.000e+00 3.442e-04 -1.679e-14
2.644e+00 0.000e+00 0.000e+00 3.636e-04 2.049e-15
2.833e+00 0.000e+00 0.000e+00 4.009e-04 2.800e-15
3.022e+00 0.000e+00 0.000e+00 4.527e-04 -4.535e-15
3.211e+00 0.000e+00 0.000e+00 5.148e-04 -4.978e-15
3.400e+00 0.000e+00 0.000e+00 5.821e-04 -7.354e-16
3.589e+00 0.000e+00 0.000e+00 6.493e-04 1.574e-14
3.777e+00 0.000e+00 0.000e+00 7.120e-04 3.760e-15
3.966e+00 0.000e+00 0.000e+00 7.664e-04 2.386e-14
4.155e+00 0.000e+00 0.000e+00 8.102e-04 5.770e-15
4.344e+00 0.000e+00 0.000e+00 8.420e-04 1.209e-14
4.533e+00 0.000e+00 0.000e+00 8.612e-04 2.816e-14
0.000e+00 1.889e-01 0.000e+00 8.676e-04 -8.058e-15
1.889e-01 1.889e-01 0.000e+00 8.612e-04 2.511e-14
3.777e-01 1.889e-01 0.000e+00 8.420e-04 9.350e-15
5.666e-01 1.889e-01 0.000e+00 8.102e-04 -8.204e-15
7.555e-01 1.889e-01 0.000e+00 7.664e-04 2.268e-14
9.443e-01 1.889e-01 0.000e+00 7.120e-04 -1.318e-14
1.133e+00 1.889e-01 0.000e+00 6.493e-04 2.178e-14
1.322e+00 1.889e-01 0.000e+00 5.821e-04 1.870e-14
1.511e+00 1.889e-01 0.000e+00 5.148e-04 -1.491e-14
1.700e+00 1.889e-01 0.000e+00 4.527e-04 3.040e-14
1.889e+00 1.889e-01 0.000e+00 4.009e-04 -1.356e-14
2.078e+00 1.889e-01 0.000e+00 3.636e-04 6.526e-15
2.266e+00 1.889e-01 0.000e+00 3.442e-04 3.034e-15
2.455e+00 1.889e-01 0.000e+00 3.442e-04 -1.679e-14
2.644e+00 1.889e-01 0.000e+00 3.636e-04 2.049e-15
2.833e+00 1.889e-01 0.000e+00 4.009e-04 2.800e-15
3.022e+00 1.889e-01 0.000e+00 4.527e-04 -4.535e-15
3.211e+00 1.889e-01 0.000e+00 5.148e-04 -4.978e-15
3.400e+00 1.889e-01 0.000e+00 5.821e-04 -7.354e-16
3.589e+00 1.889e-01 0.000e+00 6.493e-04 1.574e-14
3.777e+00 1.889e-01 0.000e+00 7.120e-04 3.760e-15
3.966e+00 1.889e-01 0.000e+00 7.664e-04 2.386e-14
4.155e+00 1.889e-01 0.000e+00 8.102e-04 5.770e-15
4.344e+00 1.889e-01 0.000e+00 8.420e-04 1.209e-14
4.533e+00 1.889e-01 0.000e+00 8.612e-04 2.816e-14
0.000e+00 3.777e-01 0.000e+00 8.676e-04 -8.058e-15
1.889e-01 3.777e-01 0.000e+00 8.612e-04 2.511e-14
3.777e-01 3.777e-01 0.000e+00 8.420e-04 9.350e-15
5.666e-01 3.777e-01 0.000e+00 8.102e-04 -8.204e-15
7.555e-01 3.777e-01 0.000e+00 7.664e-04 2.268e-14
9.443e-01 3.777e-01 0.000e+00 7.120e-04 -1.318e-14
1.133e+00 3.777e-01 0.000e+00 6.493e-04 2.178e-14
1.322e+00 3.777e-01 0.000e+00 5.821e-04 1.870e-14
1.511e+00 3.777e-01 0.000e+00 5.148e-04 -1.491e-14
1.700e+00 3.777e-01 0.000e+00 4.527e-04 3.040e-14
1.889e+00 3.777e-01 0.000e+00 4.009e-04 -1.356e-14
2.078e+00 3.777e-01 0.000e+00 3.636e-04 6.526e-15
2.266e+00 3.777e-01 0.000e+00 3.442e-04 3.034e-15
2.455e+00 3.777e-01 0.000e+00 3.442e-04 -1.679e-14
2.644e+00 3.777e-01 0.000e+00 3.636e-04 2.049e-15
2.833e+00 3.777e-01 0.000e+00 4.009e-04 2.800e-15
3.022e+00 3.777e-01 0.000e+00 4.527e-04 -4.535e-15
3.211e+00 3.777e-01 0.000e+00 5.148e-04 -4.978e-15
3.400e+00 3.777e-01 0.000e+00 5.821e-04 -7.354e-16
3.589e+00 3.777e-01 0.000e+00 6.493e-04 1.574e-14
3.777e+00 3.777e-01 0.000e+00 7.120e-04 3.760e-15
3.966e+00 3.777e-01 0.000e+00 7.664e-04 2.386e-14
4.155e+00 3.777e-01 0.000e+00 8.102e-04 5.770e-15
4.344e+00 3.777e-01 0.000e+00 8.420e-04 1.209e-14
4.533e+00 3.777e-01 0.000e+00 8.612e-04 2.816e-14
0.000e+00 5.666e-01 0.000e+00 8.676e-04 -8.058e-15
1.889e-01 5.666e-01 0.000e+00 8.612e-04 2.511e-14
3.777e-01 5.666e-01 0.000e+00 8.420e-04 9.350e-15
5.666e-01 5.666e-01 0.000e+00 8.102e-04 -8.204e-15
7.555e-01 5.666e-01 0.000e+00 7.664e-04 2.268e-14
9.443e-01 5.666e-01 0.000e+00 7.120e-04 -1.318e-14
1.133e+00 5.666e-01 0.000e+00 6.493e-04 2.178e-14
1.322e+00 5.666e-01 0.000e+00 5.821e-04 1.870e-14
1.511e+00 5.666e-01 0.000e+00 5.148e-04 -1.491e-14
1.700e+00 5.666e-01 0.000e+00 4.527e-04 3.040e-14
1.889e+00 5.666e-01 0.000e+00 4.009e-04 -1.356e-14
2.078e+00 5.666e-01 0.000e+00 3.636e-04 6.526e-15
2.266e+00 5.666e-01 0.000e+00 3.442e-04 3.034e-15
2.455e+00 5.666e-01 0.000e+00 3.442e-04 -1.679e-14
2.644e+00 5.666e-01 0.000e+00 3.636e-04 2.049e-15
2.833e+00 5.666e-01 0.000e+00 4.009e-04 2.800e-15
3.022e+00 5.666e-01 0.000e+00 4.527e-04 -4.535e-15
3.211e+00 5.666e-01 0.000e+00 5.148e-04 -4.978e-15
3.400e+00 5.666e-01 0.000e+00 5.821e-04 -7.354e-16
3.589e+00 5.666e-01 0.000e+00 6.493e-04 1.574e-14
3.777e+00 5.666e-01 0.000e+00 7.120e-04 3.760e-15
3.966e+00 5.666e-01 0.000e+00 7.664e-04 2.386e-14
4.155e+00 5.666e-01 0.000e+00 8.102e-04 5.770e-15
4.344e+00 5.666e-01 0.000e+00 8.420e-04 1.209e-14
4.533e+00 5.666e-01 0.000e+00 8.612e-04 2.816e-14
0.000e+00 7.555e-01 0.000e+00 8.676e-04 -8.058e-15
1.889e-01 7.555e-01 0.000e+00 8.612e-04 2.511e-14
3.777e-01 7.555e-01 0.000e+00 8.420e-04 9.350e-15
5.666e-01 7.555e-01 0.000e+00 8.102e-04 -8.204e-15
7.555e-01 7.555e-01 0.000e+00 7.664e-04 2.268e-14
9.443e-01 7.555e-01 0.000e+00 7.120e-04 -1.318e-14
1.133e+00 7.555e-01 0.000e+00 6.493e-04 2.178e-14
1.322e+00 7.555e-01 0.000e+00 5.821e-04 1.870e-14
1.511e+00 7.555e-01 0.000e+00 5.148e-04 -1.491e-14
1.700e+00 7.555e-01 0.000e+00 4.527e-04 3.040e-14
1.889e+00 7.555e-01 0.000e+00 4.009e-04 -1.356e-14
2.078e+00 7.555e-01 0.000e+00 3.636e-04 6.526e-15
2.266e+00 7.555e-01 0.000e+00 3.442e-04 3.034e-15
2.455e+00 7.555e-01 0.000e+00 3.442e-04 -1.679e-14
2.644e+00 7.555e-01 0.000e+00 3.636e-04 2.049e-15
2.833e+00 7.555e-01 0.000e+00 4.009e-04 2.800e-15
3.022e+00 7.555e-01 0.000e+00 4.527e-04 -4.535e-15
3.211e+00 7.555e-01 0.000e+00 5.148e-04 -4.978e-15
3.400e+00 7.555e-01 0.000e+00 5.821e-04 -7.354e-16
3.589e+00 7.555e-01 0.000e+00 6.493e-04 1.574e-14
3.777e+00 7.555e-01 0.000e+00 7.120e-04 3.760e-15
3.966e+00 7.555e-01 0.000e+00 7.664e-04 2.386e-14
4.155e+00 7.555e-01 0.000e+00 8.102e-04 5.770e-15
4.344e+00 7.555e-01 0.000e+00 8.420e-04 1.209e-14
4.533e+00 7.555e-01 0.000e+00 8.612e-04 2.816e-14
0.000e+00 9.443e-01 0.000e+00 8.676e-04 -8.058e-15
1.889e-01 9.443e-01 0.000e+00 8.612e-04 2.511e-14
3.777e-01 9.443e-01 0.000e+00 8.420e-04 9.350e-15
5.666e-01 9.443e-01 0.000e+00 8.102e-04 -8.204e-15
7.555e-01 9.443e-01 0.000e+00 7.664e-04 2.268e-14
9.443e-01 9.443e-01 0.000e+00 7.120e-04 -1.318e-14
1.133e+00 9.443e-01 0.000e+00 6.493e-04 2.178e-14
1.322e+00 9.443e-01 0.000e+00 5.821e-04 1.870e-14
1.511e+00 9.443e-01 0.000e+00 5.148e-04 -1.491e-14
1.700e+00 9.443e-01 0.000e+00 4.527e-04 3.040e-14
1.889e+00 9.443e-01 0.000e+00 4.009e-04 -1.356e-14
2.078e+00 9.443e-01 0.000e+00 3.636e-04 6.526e-15
2.266e+00 9.443e-01 0.000e+00 3.442e-04 3.034e-15
2.455e+00 9.443e-01 0.000e+00 3.442e-04 -1.679e-14
2.644e+00 9.443e-01 0.000e+00 3.636e-04 2.049e-15
2.833e+00 9.443e-01 0.000e+00 4.009e-04 2.800e-15
3.022e+00 9.443e-01 0.000e+00 4.527e-04 -4.535e-15
3.211e+00 9.443e-01 0.000e+00 5.148e-04 -4.978e-15
3.400e+00 9.443e-01 0.000e+00 5.821e-04 -7.354e-16
3.589e+00 9.443e-01 0.000e+00 6.493e-04 1.574e-14
3.777e+00 9.443e-01 0.000e+00 7.120e-04 3.760e-15
3.966e+00 9.443e-01 0.000e+00 7.664e-04 2.386e-14
4.155e+00 9.443e-01 0.000e+00 8.102e-04 5.770e-15
4.344e+00 9.443e-01 0.000e+00 8.420e-04 1.209e-14
4.533e+00 9.443e-01 0.000e+00 8.612e-04 2.816e-14
0.000e+00 1.133e+00 0.000e+00 8.676e-04 -8.058e-15
1.889e-01 1.133e+00 0.000e+00 8.612e-04 2.511e-14
3.777e-01 1.133e+00 0.000e+00 8.420e-04 9.350e-15
5.666e-01 1.133e+00 0.000e+00 8.102e-04 -8.204e-15
7.555e-01 1.133e+00 0.000e+00 7.664e-04 2.268e-14
9.443e-01 1.133e+00 0.000e+00 7.120e-04 -1.318e-14
1.133e+00 1.133e+00 0.000e+00 6.493e-04 2.178e-14
1.322e+00 1.133e+00 0.000e+00 5.821e-04 1.870e-14
1.511e+00 1.133e+00 0.000e+00 5.148e-04 -1.491e-14
1.700e+00 1.133e+00 0.000e+00 4.527e-04 3.040e-14
1.889e+00 1.133e+00 0.000e+00 4.009e-04 -1.356e-14
2.078e+00 1.133e+00 0.000e+00 3.636e-04 6.526e-15
2.266e+00 1.133e+00 0.000e+00 3.442e-04 3.034e-15
2.455e+00 1.133e+00 0.000e+00 3.442e-04 -1.679e-14
2.644e+00 1.133e+00 0.000e+00 3.636e-04 2.049e-15
2.833e+00 1.133e+00 0.000e+00 4.009e-04 2.800e-15
3.022e+00 1.133e+00 0.000e+00 4.527e-04 -4.535e-15
3.211e+00 1.133e+00 0.000e+00 5.148e-04 -4.978e-15
3.400e+00 1.133e+00 0.000e+00 5.821e-04 -7.354e-16
3.589e+00 1.133e+00 0.000e+00 6.493e-04 1.574e-14
3.777e+00 1.133e+00 0.000e+00 7.120e-04 3.760e-15
3.966e+00 1.133e+00 0.000e+00 7.664e-04 2.386e-14
4.155e+00 1.133e+00 0.000e+00 8.102e-04 5.770e-15
4.344e+00 1.133e+00 0.000e+00 8.420e-04 1.209e-14
4.533e+00 1.133e+00 0.000e+00 8.612e-04 2.816e-14
0.000e+00 1.322e+00 0.000e+00 8.676e-04 -8.058e-15
1.889e-01 1.322e+00 0.000e+00 8.612e-04 2.511e-14
3.777e-01 1.322e+00 0.000e+00 8.420e-04 9.350e-15
5.666e-01 1.322e+00 0.000e+00 8.102e-04 -8.204e-15
7.555e-01 1.322e+00 0.000e+00 7.664e-04 2.268e-14
9.443e-01 1.322e+00 0.000e+00 7.120e-04 -1.318e-14
1.133e+00 1.322e+00 0.000e+00 6.493e-04 2.178e-14
1.322e+00 1.322e+00 0.000e+00 5.821e-04 1.870e-14
1.511e+00 1.322e+00 0.000e+00 5.148e-04 -1.491e-14
1.700e+00 1.322e+00 0.000e+00 4.527e-04 3.040e-14
1.889e+00 1.322e+00 0.000e+00 4.009e-04 -1.356e-14
2.078e+00 1.322e+00 0.000e+00 3.636e-04 6.526e-15
2.266e+00 1.322e+00 0.000e+00 3.442e-04 3.034e-15
2.455e+00 1.322e+00 0.000e+00 3.442e-04 -1.679e-14
2.644e+00 1.322e+00 0.000e+00 3.636e-04 2.049e-15
2.833e+00 1.322e+00 0.000e+00 4.009e-04 2.800e-15
3.022e+00 1.322e+00 0.000e+00 4.527e-04 -4.535e-15
3.211e+00 1.322e+00 0.000e+00 5.148e-04 -4.978e-15
3.400e+00 1.322e+00 0.000e+00 5.821e-04 -7.354e-16
3.589e+00 1.322e+00 0.000e+00 6.493e-04 1.574e-14
3.777e+00 1.322e+00 0.000e+00 7.120e-04 3.760e-15
3.966e+00 1.322e+00 0.000e+00 7.664e-04 2.386e-14
4.155e+00 1.322e+00 0.000e+00 8.102e-04 5.770e-15
4.344e+00 1.322e+00 0.000e+00 8.420e-04 1.209e-14
4.533e+00 1.322e+00 0.000e+00 8.612e-04 2.816e-14
0.000e+00 1.511e+00 0.000e+00 8.676e-04 -8.058e-15
1.889e-01 1.511e+00 0.000e+00 8.612e-04 2.511e-14
3.777e-01 1.511e+00 0.000e+00 8.420e-04 9.350e-15
5.666e-01 1.511e+00 0.000e+00 8.102e-04 -8.204e-15
7.555e-01 1.511e+00 0.000e+00 7.664e-04 2.268e-14
9.443e-01 1.511e+00 0.000e+00 7.120e-04 -1.318e-14
1.133e+00 1.511e+00 0.000e+00 6.493e-04 2.178e-14
1.322e+00 1.511e+00 0.000e+00 5.821e-04 1.870e-14
1.511e+00 1.511e+00 0.000e+00 5.148e-04 -1.491e-14
1.700e+00 1.511e+00 0.000e+00 4.527e-04 3.040e-14
1.889e+00 1.511e+00 0.000e+00 4.009e-04 -1.356e-14
2.078e+00 1.511e+00 0.000e+00 3.636e-04 6.526e-15
2.266e+00 1.511e+00 0.000e+00 3.442e-04 3.034e-15
2.455e+00 1.511e+00 0.000e+00 3.442e-04 -1.679e-14
2.644e+00 1.511e+00 0.000e+00 3.636e-04 2.049e-15
2.833e+00 1.511e+00 0.000e+00 4.009e-04 2.800e-15
3.022e+00 1.511e+00 0.000e+00 4.527e-04 -4.535e-15
3.211e+00 1.511e+00 0.000e+00 5.148e-04 -4.978e-15
3.400e+00 1.511e+00 0.000e+00 5.821e-04 -7.354e-16
3.589e+00 1.511e+00 0.000e+00 6.493e-04 1.574e-14
3.777e+00 1.511e+00 0.000e+00 7.120e-04 3.760e-15
3.966e+00 1.511e+00 0.000e+00 7.664e-04 2.386e-14
4.155e+00 1.511e+00 0.000e+00 8.102e-04 5.770e-15
4.344e+00 1.511e+00 0.000e+00 8.420e-04 1.209e-14
4.533e+00 1.511e+00 0.000e+00 8.612e-04 2.816e-14
0.000e+00 1.700e+00 0.000e+00 8.676e-04 -8.058e-15
1.889e-01 1.700e+00 0.000e+00 8.612e-04 2.511e-14
3.777e-01 1.700e+00 0.000e+00 8.420e-04 9.350e-15
5.666e-01 1.700e+00 0.000e+00 8.102e-04 -8.204e-15
7.555e-01 1.700e+00 0.000e+00 7.664e-04 2.268e-14
9.443e-01 1.700e+00 0.000e+00 7.120e-04 -1.318e-14
1.133e+00 1.700e+00 0.000e+00 6.493e-04 2.178e-14
1.322e+00 1.700e+00 0.000e+00 5.821e-04 1.870e-14
1.511e+00 1.700e+00 0.000e+00 5.148e-04 -1.491e-14
1.700e+00 1.700e+00 0.000e+00 4.527e-04 3.040e-14
1.889e+00 1.700e+00 0.000e+00 4.009e-04 -1.356e-14
2.078e+00 1.700e+00 0.000e+00 3.636e-04 6.526e-15
2.266e+00 1.700e+00 0.000e+00 3.442e-04 3.034e-15
2.455e+00 1.700e+00 0.000e+00 3.442e-04 -1.679e-14
2.644e+00 1.700e+00 0.000e+00 3.636e-04 2.049e-15
2.833e+00 1.700e+00 0.000e+00 4.009e-04 2.800e-15
3.022e+00 1.700e+00 0.000e+00 4.527e-04 -4.535e-15
3.211e+00 1.700e+00 0.000e+00 5.148e-04 -4.978e-15
3.400e+00 1.700e+00 0.000e+00 5.821e-04 -7.354e-16
3.589e+00 1.700e+00 0.000e+00 6.493e-04 1.574e-14
3.777e+00 1.700e+00 0.000e+00 7.120e-04 3.760e-15
3.966e+00 1.700e+00 0.000e+00 7.664e-04 2.386e-14
4.155e+00 1.700e+00 0.000e+00 8.102e-04 5.770e-15
4.344e+00 1.700e+00 0.000e+00 8.420e-04 1.209e-14
4.533e+00 1.700e+00 0.000e+00 8.612e-04 2.816e-14
0.000e+00 1.889e+00 0.000e+00 8.676e-04 -8.058e-15
1.889e-01 1.889e+00 0.000e+00 8.612e-04 2.511e-14
3.777e-01 1.889e+00 0.000e+00 8.420e-04 9.350e-15
5.666e-01 1.889e+00 0.000e+00 8.102e-04 -8.204e-15
7.555e-01 1.889e+00 0.000e+00 7.664e-04 2.268e-14
9.443e-01 1.889e+00 0.000e+00 7.120e-04 -1.318e-14
1.133e+00 1.889e+00 0.000e+00 6.493e-04 2.178e-14
1.322e+00 1.889e+00 0.000e+00 5.821e-04 1.870e-14
1.511e+00 1.889e+00 0.000e+00 5.148e-04 -1.491e-14
1.700e+00 1.889e+00 0.000e+00 4.527e-04 3.040e-14
1.889e+00 1.889e+00 0.000e+00 4.009e-04 -1.356e-14
2.078e+00 1.889e+00 0.000e+00 3.636e-04 6.526e-15
2.266e+00 1.889e+00 0.000e+00 3.442e-04 3.034e-15
2.455e+00 1.889e+00 0.000e+00 3.442e-04 -1.679e-14
2.644e+00 1.889e+00 0.000e+00 3.636e-04 2.049e-15
2.833e+00 1.889e+00 0.000e+00 4.009e-04 2.800e-15
3.022e+00 1.889e+00 0.000e+00 4.527e-04 -4.535e-15
3.211e+00 1.889e+00 0.000e+00 5.148e-04 -4.978e-15
3.400e+00 1.889e+00 0.000e+00 5.821e-04 -7.354e-16
3.589e+00 1.889e+00 0.000e+00 6.493e-04 1.574e-14
3.777e+00 1.889e+00 0.000e+00 7.120e-04 3.760e-15
3.966e+00 1.889e+00 0.000e+00 7.664e-04 2.386e-14
4.155e+00 1.889e+00 0.000e+00 8.102e-04 5.770e-15
4.344e+00 1.889e+00 0.000e+00 8.420e-04 1.209e-14
4.533e+00 1.889e+00 0.000e+00 8.612e-04 2.816e-14
0.000e+00 2.078e+00 0.000e+00 8.676e-04 -8.058e-15
1.889e-01 2.078e+00 0.000e+00 8.612e-04 2.511e-14
3.777e-01 2.078e+00 0.000e+00 8.420e-04 9.350e-15
5.666e-01 2.078e+00 0.000e+00 8.102e-04 -8.204e-15
7.555e-01 2.078e+00 0.000e+00 7.664e-04 2.268e-14
9.443e-01 2.078e+00 0.000e+00 7.120e-04 -1.318e-14
1.133e+00 2.078e+00 0.000e+00 6.493e-04 2.178e-14
1.322e+00 2.078e+00 0.000e+00 5.821e-04 1.870e-14
1.511e+00 2.078e+00 0.000e+00 5.148e-04 -1.491e-14
1.700e+00 2.078e+00 0.000e+00 4.527e-04 3.040e-14
1.889e+00 2.078e+00 0.000e+00 4.009e-04 -1.356e-14
2.078e+00 2.078e+00 0.000e+00 3.636e-04 6.526e-15
2.266e+00 2.078e+00 0.000e+00 3.442e-04 3.034e-15
2.455e+00 2.078e+00 0.000e+00 3.442e-04 -1.679e-14
2.644e+00 2.078e+00 0.000e+00 3.636e-04 2.049e-15
2.833e+00 2.078e+00 0.000e+00 4.009e-04 2.800e-15
3.022e+00 2.078e+00 0.000e+00 4.527e-04 -4.535e-15
3.211e+00 2.078e+00 0.000e+00 5.148e-04 -4.978e-15
3.400e+00 2.078e+00 0.000e+00 5.821e-04 -7.354e-16
3.589e+00 2.078e+00 0.000e+00 6.493e-04 1.574e-14
3.777e+00 2.078e+00 0.000e+00 7.120e-04 3.760e-15
3.966e+00 2.078e+00 0.000e+00 7.664e-04 2.386e-14
4.155e+00 2.078e+00 0.000e+00 8.102e-04 5.770e-15
4.344e+00 2.078e+00 0.000e+00 8.420e-04 1.209e-14
4.533e+00 2.078e+00 0.000e+00 8.612e-04 2.816e-14
0.000e+00 2.266e+00 0.000e+00 8.676e-04 -8.058e-15
1.889e-01 2.266e+00 0.000e+00 8.612e-04 2.511e-14
3.777e-01 2.266e+00 0.000e+00 8.420e-04 9.350e-15
5.666e-01 2.266e+00 0.000e+00 8.102e-04 -8.204e-15
7.555e-01 2.266e+00 0.000e+00 7.664e-04 2.268e-14
9.443e-01 2.266e+00 0.000e+00 7.120e-04 -1.318e-14
1.133e+00 2.266e+00 0.000e+00 6.493e-04 2.178e-14
1.322e+00 2.266e+00 0.000e+00 5.821e-04 1.870e-14
1.511e+00 2.266e+00 0.000e+00 5.148e-04 -1.491e-14
1.700e+00 2.266e+00 0.000e+00 4.527e-04 3.040e-14
1.889e+00 2.266e+00 0.000e+00 4.009e-04 -1.356e-14
2.078e+00 2.266e+00 0.000e+00 3.636e-04 6.526e-15
2.266e+00 2.266e+00 0.000e+00 3.442e-04 3.034e-15
2.455e+00 2.266e+00 0.000e+00 3.442e-04 -1.679e-14
2.644e+00 2.266e+00 0.000e+00 3.636e-04 2.049e-15
2.833e+00 2.266e+00 0.000e+00 4.009e-04 2.800e-15
3.022e+00 2.266e+00 0.000e+00 4.527e-04 -4.535e-15
3.211e+00 2.266e+00 0.000e+00 5.148e-04 -4.978e-15
3.400e+00 2.266e+00 0.000e+00 5.821e-04 -7.354e-16
3.589e+00 2.266e+00 0.000e+00 6.493e-04 1.574e-14
3.777e+00 2.266e+00 0.000e+00 7.120e-04 3.760e-15
3.966e+00 2.266e+00 0.000e+00 7.664e-04 2.386e-14
4.155e+00 2.266e+00 0.000e+00 8.102e-04 5.770e-15
4.344e+00 2.266e+00 0.000e+00 8.420e-04 1.209e-14
4.533e+00 2.266e+00 0.000e+00 8.612e-04 2.816e-14
0.000e+00 2.455e+00 0.000e+00 8.676e-04 -8.058e-15
1.889e-01 2.455e+00 0.000e+00 8.612e-04 2.511e-14
3.777e-01 2.455e+00 0.000e+00 8.420e-04 9.350e-15
5.666e-01 2.455e+00 0.000e+00 8.102e-04 -8.204e-15
7.555e-01 2.455e+00 0.000e+00 7.664e-04 2.268e-14
9.443e-01 2.455e+00 0.000e+00 7.120e-04 -1.318e-14
1.133e+00 2.455e+00 0.000e+00 6.493e-04 2.178e-14
1.322e+00 2.455e+00 0.000e+00 5.821e-04 1.870e-14
1.511e+00 2.455e+00 0.000e+00 5.148e-04 -1.491e-14
1.700e+00 2.455e+00 0.000e+00 4.527e-04 3.040e-14
1.889e+00 2.455e+00 0.000e+00 4.009e-04 -1.356e-14
2.078e+00 2.455e+00 0.000e+00 3.636e-04 6.526e-15
2.266e+00 2.455e+00 0.000e+00 3.442e-04 3.034e-15
2.455e+00 2.455e+00 0.000e+00 3.442e-04 -1.679e-14
2.644e+00 2.455e+00 0.000e+00 3.636e-04 2.049e-15
2.833e+00 2.455e+00 0.000e+00 4.009e-04 2.800e-15
3.022e+00 2.455e+00 0.000e+00 4.527e-04 -4.535e-15
3.211e+00 2.455e+00 0.000e+00 5.148e-04 -4.978e-15
3.400e+00 2.455e+00 0.000e+00 5.821e-04 -7.354e-16
3.589e+00 2.455e+00 0.000e+00 6.493e-04 1.574e-14
3.777e+00 2.455e+00 0.000e+00 7.120e-04 3.760e-15
3.966e+00 2.455e+00 0.000e+00 7.664e-04 2.386e-14
4.155e+00 2.455e+00 0.000e+00 8.102e-04 5.770e-15
4.344e+00 2.455e+00 0.000e+00 8.420e-04 1.209e-14
4.533e+00 2.455e+00 0.000e+00 8.612e-04 2.816e-14
0.000e+00 2.644e+00 0.000e+00 8.676e-04 -8.058e-15
1.889e-01 2.644e+00 0.000e+00 8.612e-04 2.511e-14
3.777e-01 2.644e+00 0.000e+00 8.420e-04 9.350e-15
5.666e-01 2.644e+00 0.000e+00 8.102e-04 -8.204e-15
7.555e-01 2.644e+00 0.000e+00 7.664e-04 2.268e-14
9.443e-01 2.644e+00 0.000e+00 7.120e-04 -1.318e-14
1.133e+00 2.644e+00 0.000e+00 6.493e-04 2.178e-14
1.322e+00 2.644e+00 0.000e+00 5.821e-04 1.870e-14
1.511e+00 2.644e+00 0.000e+00 5.148e-04 -1.491e-14
1.700e+00 2.644e+00 0.000e+00 4.527e-04 3.040e-14
1.889e+00 2.644e+00 0.000e+00 4.009e-04 -1.356e-14
2.078e+00 2.644e+00 0.000e+00 3.636e-04 6.526e-15
2.266e+00 2.644e+00 0.000e+00 3.442e-04 3.034e-15
2.455e+00 2.644e+00 0.000e+00 3.442e-04 -1.679e-14
2.644e+00 2.644e+00 0.000e+00 3.636e-04 2.049e-15
2.833e+00 2.644e+00 0.000e+00 4.009e-04 2.800e-15
3.022e+00 2.644e+00 0.000e+00 4.527e-04 -4.535e-15
3.211e+00 2.644e+00 0.000e+00 5.148e-04 -4.978e-15
3.400e+00 2.644e+00 0.000e+00 5.821e-04 -7.354e-16
3.589e+00 2.644e+00 0.000e+00 6.493e-04 1.574e-14
3.777e+00 2.644e+00 0.000e+00 7.120e-04 3.760e-15
3.966e+00 2.644e+00 0.000e+00 7.664e-04 2.386e-14
4.155e+00 2.644e+00 0.000e+00 8.102e-04 5.770e-15
4.344e+00 2.644e+00 0.000e+00 8.420e-04 1.209e-14
4.533e+00 2.644e+00 0.000e+00 8.612e-04 2.816e-14
0.000e+00 2.833e+00 0.000e+00 8.676e-04 -8.058e-15
1.889e-01 2.833e+00 0.000e+00 8.612e-04 2.511e-14
3.777e-01 2.833e+00 0.000e+00 8.420e-04 9.350e-15
5.666e-01 2.833e+00 0.000e+00 8.102e-04 -8.204e-15
7.555e-01 2.833e+00 0.000e+00 7.664e-04 2.268e-14
9.443e-01 2.833e+00 0.000e+00 7.120e-04 -1.318e-14
1.133e+00 2.833e+00 0.000e+00 6.493e-04 2.178e-14
1.322e+00 2.833e+00 0.000e+00 5.821e-04 1.870e-14
1.511e+00 2.833e+00 0.000e+00 5.148e-04 -1.491e-14
1.700e+00 2.833e+00 0.000e+00 4.527e-04 3.040e-14
1.889e+00 2.833e+00 0.000e+00 4.009e-04 -1.356e-14
2.078e+00 2.833e+00 0.000e+00 3.636e-04 6.526e-15
2.266e+00 2.833e+00 0.000e+00 3.442e-04 3.034e-15
2.455e+00 2.833e+00 0.000e+00 3.442e-04 -1.679e-14
2.644e+00 2.833e+00 0.000e+00 3.636e-04 2.049e-15
2.833e+00 2.833e+00 0.000e+00 4.009e-04 2.800e-15
3.022e+00 2.833e+00 0.000e+00 4.527e-04 -4.535e-15
3.211e+00 2.833e+00 0.000e+00 5.148e-04 -4.978e-15
3.400e+00 2.833e+00 0.000e+00 5.821e-04 -7.354e-16
3.589e+00 2.833e+00 0.000e+00 6.493e-04 1.574e-14
3.777e+00 2.833e+00 0.000e+00 7.120e-04 3.760e-15
3.966e+00 2.833e+00 0.000e+00 7.664e-04 2.386e-14
4.155e+00 2.833e+00 0.000e+00 8.102e-04 5.770e-15
4.344e+00 2.833e+00 0.000e+00 8.420e-04 1.209e-14
4.533e+00 2.833e+00 0.000e+00 8.612e-04 2.816e-14
0.000e+00 3.022e+00 0.000e+00 8.676e-04 -8.058e-15
1.889e-01 3.022e+00 0.000e+00 8.612e-04 2.511e-14
3.777e-01 3.022e+00 0.000e+00 8.420e-04 9.350e-15
5.666e-01 3.022e+00 0.000e+00 8.102e-04 -8.204e-15
7.555e-01 3.022e+00 0.000e+00 7.664e-04 2.268e-14
9.443e-01 3.022e+00 0.000e+00 7.120e-04 -1.318e-14
1.133e+00 3.022e+00 0.000e+00 6.493e-04 2.178e-14
1.322e+00 3.022e+00 0.000e+00 5.821e-04 1.870e-14
1.511e+00 3.022e+00 0.000e+00 5.148e-04 -1.491e-14
1.700e+00 3.022e+00 0.000e+00 4.527e-04 3.040e-14
1.889e+00 3.022e+00 0.000e+00 4.009e-04 -1.356e-14
2.078e+00 3.022e+00 0.000e+00 3.636e-04 6.526e-15
2.266e+00 3.022e+00 0.000e+00 3.442e-04 3.034e-15
2.455e+00 3.022e+00 0.000e+00 3.442e-04 -1.679e-14
2.644e+00 3.022e+00 0.000e+00 3.636e-04 2.049e-15
2.833e+00 3.022e+00 0.000e+00 4.009e-04 2.800e-15
3.022e+00 3.022e+00 0.000e+00 4.527e-04 -4.535e-15
3.211e+00 3.022e+00 0.000e+00 5.148e-04 -4.978e-15
3.400e+00 3.022e+00 0.000e+00 5.821e-04 -7.354e-16
3.589e+00 3.022e+00 0.000e+00 6.493e-04 1.574e-14
3.777e+00 3.022e+00 0.000e+00 7.120e-04 3.760e-15
3.966e+00 3.022e+00 0.000e+00 7.664e-04 2.386e-14
4.155e+00 3.022e+00 0.000e+00 8.102e-04 5.770e-15
4.344e+00 3.022e+00 0.000e+00 8.420e-04 1.209e-14
4.533e+00 3.022e+00 0.000e+00 8.612e-04 2.816e-14
0.000e+00 3.211e+00 0.000e+00 8.676e-04 -8.058e-15
1.889e-01 3.211e+00 0.000e+00 8.612e-04 2.511e-14
3.777e-01 3.211e+00 0.000e+00 8.420e-04 9.350e-15
5.666e-01 3.211e+00 0.000e+00 8.102e-04 -8.204e-15
7.555e-01 3.211e+00 0.000e+00 7.664e-04 2.268e-14
9.443e-01 3.211e+00 0.000e+00 7.120e-04 -1.318e-14
1.133e+00 3.211e+00 0.000e+00 6.493e-04 2.178e-14
1.322e+00 3.211e+00 0.000e+00 5.821e-04 1.870e-14
1.511e+00 3.211e+00 0.000e+00 5.148e-04 -1.491e-14
1.700e+00 3.211e+00 0.000e+00 4.527e-04 3.040e-14
1.889e+00 3.211e+00 0.000e+00 4.009e-04 -1.356e-14
2.078e+00 3.211e+00 0.000e+00 3.636e-04 6.526e-15
2.266e+00 3.211e+00 0.000e+00 3.442e-04 3.034e-15
2.455e+00 3.211e+00 0.000e+00 3.442e-04 -1.679e-14
2.644e+00 3.211e+00 0.000e+00 3.636e-04 2.049e-15
2.833e+00 3.211e+00 0.000e+00 4.009e-04 2.800e-15
3.022e+00 3.211e+00 0.000e+00 4.527e-04 -4.535e-15
3.211e+00 3.211e+00 0.000e+00 5.148e-04 -4.978e-15
3.400e+00 3.211e+00 0.000e+00 5.821e-04 -7.354e-16
3.589e+00 3.211e+00 0.000e+00 6.493e-04 1.574e-14
3.777e+00 3.211e+00 0.000e+00 7.120e-04 3.760e-15
3.966e+00 3.211e+00 0.000e+00 7.664e-04 2.386e-14
4.155e+00 3.211e+00 0.000e+00 8.102e-04 5.770e-15
4.344e+00 3.211e+00 0.000e+00 8.420e-04 1.209e-14
4.533e+00 3.211e+00 0.000e+00 8.612e-04 2.816e-14
0.000e+00 3.400e+00 0.000e+00 8.676e-04 -8.058e-15
1.889e-01 3.400e+00 0.000e+00 8.612e-04 2.511e-14
3.777e-01 3.400e+00 0.000e+00 8.420e-04 9.350e-15
5.666e-01 3.400e+00 0.000e+00 8.102e-04 -8.204e-15
7.555e-01 3.400e+00 0.000e+00 7.664e-04 2.268e-14
9.443e-01 3.400e+00 0.000e+00 7.120e-04 -1.318e-14
1.133e+00 3.400e+00 0.000e+00 6.493e-04 2.178e-14
1.322e+00 3.400e+00 0.000e+00 5.821e-04 1.870e-14
1.511e+00 3.400e+00 0.000e+00 5.148e-04 -1.491e-14
1.700e+00 3.400e+00 0.000e+00 4.527e-04 3.040e-14
1.889e+00 3.400e+00 0.000e+00 4.009e-04 -1.356e-14
2.078e+00 3.400e+00 0.000e+00 3.636e-04 6.526e-15
2.266e+00 3.400e+00 0.000e+00 3.442e-04 3.034e-15
2.455e+00 3.400e+00 0.000e+00 3.442e-04 -1.679e-14
2.644e+00 3.400e+00 0.000e+00 3.636e-04 2.049e-15
2.833e+00 3.400e+00 0.000e+00 4.009e-04 2.800e-15
3.022e+00 3.400e+00 0.000e+00 4.527e-04 -4.535e-15
3.211e+00 3.400e+00 0.000e+00 5.148e-04 -4.978e-15
3.400e+00 3.400e+00 0.000e+00 5.821e-04 -7.354e-16
3.589e+00 3.400e+00 0.000e+00 6.493e-04 1.574e-14
3.777e+00 3.400e+00 0.000e+00 7.120e-04 3.760e-15
3.966e+00 3.400e+00 0.000e+00 7.664e-04 2.386e-14
4.155e+00 3.400e+00 0.000e+00 8.102e-04 5.770e-15
4.344e+00 3.400e+00 0.000e+00 8.420e-04 1.209e-14
4.533e+00 3.400e+00 0.000e+00 8.612e-04 2.816e-14
0.000e+00 3.589e+00 0.000e+00 8.676e-04 -8.058e-15
1.889e-01 3.589e+00 0.000e+00 8.612e-04 2.511e-14
3.777e-01 3.589e+00 0.000e+00 8.420e-04 9.350e-15
5.666e-01 3.589e+00 0.000e+00 8.102e-04 -8.204e-15
7.555e-01 3.589e+00 0.000e+00 7.664e-04 2.268e-14
9.443e-01 3.589e+00 0.000e+00 7.120e-04 -1.318e-14
1.133e+00 3.589e+00 0.000e+00 6.493e-04 2.178e-14
1.322e+00 3.589e+00 0.000e+00 5.821e-04 1.870e-14
1.511e+00 3.589e+00 0.000e+00 5.148e-04 -1.491e-14
1.700e+00 3.589e+00 0.000e+00 4.527e-04 3.040e-14
1.889e+00 3.589e+00 0.000e+00 4.009e-04 -1.356e-14
2.078e+00 3.589e+00 0.000e+00 3.636e-04 6.526e-15
2.266e+00 3.589e+00 0.000e+00 3.442e-04 3.034e-15
2.455e+00 3.589e+00 0.000e+00 3.442e-04 -1.679e-14
2.644e+00 3.589e+00 0.000e+00 3.636e-04 2.049e-15
2.833e+00 3.589e+00 0.000e+00 4.009e-04 2.800e-15
3.022e+00 3.589e+00 0.000e+00 4.527e-04 -4.535e-15
3.211e+00 3.589e+00 0.000e+00 5.148e-04 -4.978e-15
3.400e+00 3.589e+00 0.000e+00 5.821e-04 -7.354e-16
3.589e+00 3.589e+00 0.000e+00 6.493e-04 1.574e-14
3.777e+00 3.589e+00 0.000e+00 7.120e-04 3.760e-15
3.966e+00 3.589e+00 0.000e+00 7.664e-04 2.386e-14
4.155e+00 3.589e+00 0.000e+00 8.102e-04 5.770e-15
4.344e+00 3.589e+00 0.000e+00 8.420e-04 1.209e-14
4.533e+00 3.589e+00 0.000e+00 8.612e-04 2.816e-14
0.000e+00 3.777e+00 0.000e+00 8.676e-04 -8.058e-15
1.889e-01 3.777e+00 0.000e+00 8.612e-04 2.511e-14
3.777e-01 3.777e+00 0.000e+00 8.420e-04 9.350e-15
5.666e-01 3.777e+00 0.000e+00 8.102e-04 -8.204e-15
7.555e-01 3.777e+00 0.000e+00 7.664e-04 2.268e-14
9.443e-01 3.777e+00 0.000e+00 7.120e-04 -1.318e-14
1.133e+00 3.777e+00 0.000e+00 6.493e-04 2.178e-14
1.322e+00 3.777e+00 0.000e+00 5.821e-04 1.870e-14
1.511e+00 3.777e+00 0.000e+00 5.148e-04 -1.491e-14
1.700e+00 3.777e+00 0.000e+00 4.527e-04 3.040e-14
1.889e+00 3.777e+00 0.000e+00 4.009e-04 -1.356e-14
2.078e+00 3.777e+00 0.000e+00 3.636e-04 6.526e-15
2.266e+00 3.777e+00 0.000e+00 3.442e-04 3.034e-15
2.455e+00 3.777e+00 0.000e+00 3.442e-04 -1.679e-14
2.644e+00 3.777e+00 0.000e+00 3.636e-04 2.049e-15
2.833e+00 3.777e+00 0.000e+00 4.009e-04 2.800e-15
3.022e+00 3.777e+00 0.000e+00 4.527e-04 -4.535e-15
3.211e+00 3.777e+00 0.000e+00 5.148e-04 -4.978e-15
3.400e+00 3.777e+00 0.000e+00 5.821e-04 -7.354e-16
3.589e+00 3.777e+00 0.000e+00 6.493e-04 1.574e-14
3.777e+00 3.777e+00 0.000e+00 7.120e-04 3.760e-15
3.966e+00 3.777e+00 0.000e+00 7.664e-04 2.386e-14
4.155e+00 3.777e+00 0.000e+00 8.102e-04 5.770e-15
4.344e+00 3.777e+00 0.000e+00 8.420e-04 1.209e-14
4.533e+00 3.777e+00 0.000e+00 8.612e-04 2.816e-14
0.000e+00 3.966e+00 0.000e+00 8.676e-04 -8.058e-15
1.889e-01 3.966e+00 0.000e+00 8.612e-04 2.511e-14
3.777e-01 3.966e+00 0.000e+00 8.420e-04 9.350e-15
5.666e-01 3.966e+00 0.000e+00 8.102e-04 -8.204e-15
7.555e-01 3.966e+00 0.000e+00 7.664e-04 2.268e-14
9.443e-01 3.966e+00 0.000e+00 7.120e-04 -1.318e-14
1.133e+00 3.966e+00 0.000e+00 6.493e-04 2.178e-14
1.322e+00 3.966e+00 0.000e+00 5.821e-04 1.870e-14
1.511e+00 3.966e+00 0.000e+00 5.148e-04 -1.491e-14
1.700e+00 3.966e+00 0.000e+00 4.527e-04 3.040e-14
1.889e+00 3.966e+00 0.000e+00 4.009e-04 -1.356e-14
2.078e+00 3.966e+00 0.000e+00 3.636e-04 6.526e-15
2.266e+00 3.966e+00 0.000e+00 3.442e-04 3.034e-15
2.455e+00 3.966e+00 0.000e+00 3.442e-04 -1.679e-14
2.644e+00 3.966e+00 0.000e+00 3.636e-04 2.049e-15
2.833e+00 3.966e+00 0.000e+00 4.009e-04 2.800e-15
3.022e+00 3.966e+00 0.000e+00 4.527e-04 -4.535e-15
3.211e+00 3.966e+00 0.000e+00 5.148e-04 -4.978e-15
3.400e+00 3.966e+00 0.000e+00 5.821e-04 -7.354e-16
3.589e+00 3.966e+00 0.000e+00 6.493e-04 1.574e-14
3.777e+00 3.966e+00 0.000e+00 7.120e-04 3.760e-15
3.966e+00 3.966e+00 0.000e+00 7.664e-04 2.386e-14
4.155e+00 3.966e+00 0.000e+00 8.102e-04 5.770e-15
4.344e+00 3.966e+00 0.000e+00 8.420e-04 1.209e-14
4.533e+00 3.966e+00 0.000e+00 8.612e-04 2.816e-14
0.000e+00 4.155e+00 0.000e+00 8.676e-04 -8.058e-15
1.889e-01 4.155e+00 0.000e+00 8.612e-04 2.511e-14
3.777e-01 4.155e+00 0.000e+00 8.420e-04 9.350e-15
5.666e-01 4.155e+00 0.000e+00 8.102e-04 -8.204e-15
7.555e-01 4.155e+00 0.000e+00 7.664e-04 2.268e-14
9.443e-01 4.155e+00 0.000e+00 7.120e-04 -1.318e-14
1.133e+00 4.155e+00 0.000e+00 6.493e-04 2.178e-14
1.322e+00 4.155e+00 0.000e+00 5.821e-04 1.870e-14
1.511e+00 4.155e+00 0.000e+00 5.148e-04 -1.491e-14
1.700e+00 4.155e+00 0.000e+00 4.527e-04 3.040e-14
1.889e+00 4.155e+00 0.000e+00 4.009e-04 -1.356e-14
2.078e+00 4.155e+00 0.000e+00 3.636e-04 6.526e-15
2.266e+00 4.155e+00 0.000e+00 3.442e-04 3.034e-15
2.455e+00 4.155e+00 0.000e+00 3.442e-04 -1.679e-14
2.644e+00 4.155e+00 0.000e+00 3.636e-04 2.049e-15
2.833e+00 4.155e+00 0.000e+00 4.009e-04 2.800e-15
3.022e+00 4.155e+00 0.000e+00 4.527e-04 -4.535e-15
3.211e+00 4.155e+00 0.000e+00 5.148e-04 -4.978e-15
3.400e+00 4.155e+00 0.000e+00 5.821e-04 -7.354e-16
3.589e+00 4.155e+00 0.000e+00 6.493e-04 1.574e-14
3.777e+00 4.155e+00 0.000e+00 7.120e-04 3.760e-15
3.966e+00 4.155e+00 0.000e+00 7.664e-04 2.386e-14
4.155e+00 4.155e+00 0.000e+00 8.102e-04 5.770e-15
4.344e+00 4.155e+00 0.000e+00 8.420e-04 1.209e-14
4.533e+00 4.155e+00 0.000e+00 8.612e-04 2.816e-14
0.000e+00 4.344e+00 0.000e+00 8.676e-04 -8.058e-15
1.889e-01 4.344e+00 0.000e+00 8.612e-04 2.511e-14
3.777e-01 4.344e+00 0.000e+00 8.420e-04 9.350e-15
5.666e-01 4.344e+00 0.000e+00 8.102e-04 -8.204e-15
7.555e-01 4.344e+00 0.000e+00 7.664e-04 2.268e-14
9.443e-01 4.344e+00 0.000e+00 7.120e-04 -1.318e-14
1.133e+00 4.344e+00 0.000e+00 6.493e-04 2.178e-14
1.322e+00 4.344e+00 0.000e+00 5.821e-04 1.870e-14
1.511e+00 4.344e+00 0.000e+00 5.148e-04 -1.491e-14
1.700e+00 4.344e+00 0.000e+00 4.527e-04 3.040e-14
1.889e+00 4.344e+00 0.000e+00 4.009e-04 -1.356e-14
2.078e+00 4.344e+00 0.000e+00 3.636e-04 6.526e-15
2.266e+00 4.344e+00 0.000e+00 3.442e-04 3.034e-15
2.455e+00 4.344e+00 0.000e+00 3.442e-04 -1.679e-14
2.644e+00 4.344e+00 0.000e+00 3.636e-04 2.049e-15
2.833e+00 4.344e+00 0.000e+00 4.009e-04 2.800e-15
3.022e+00 4.344e+00 0.000e+00 4.527e-04 -4.535e-15
3.211e+00 4.344e+00 0.000e+00 5.148e-04 -4.978e-15