TITLE = "rhoda_c"
VARIABLES = "X", "Y", "Z", "Real", "Imaginary"
ZONE I=25, J=25, K=75, F=POINT
0.000e+00 0.000e+00 0.000e+00 7.096e-04 1.831e-17
1.889e-01 0.000e+00 0.000e+00 7.028e-04 6.041e-17
3.777e-01 0.000e+00 0.000e+00 6.831e-04 -3.493e-17
5.666e-01 0.000e+00 0.000e+00 6.521e-04 -9.696e-17
7.555e-01 0.000e+00 0.000e+00 6.124e-04 -5.532e-18
9.443e-01 0.000e+00 0.000e+00 5.669e-04 -1.316e-16
1.133e+00 0.000e+00 0.000e+00 5.184e-04 -2.478e-18
1.322e+00 0.000e+00 0.000e+00 4.700e-04 -1.258e-16
1.511e+00 0.000e+00 0.000e+00 4.243e-04 -2.664e-16
1.700e+00 0.000e+00 0.000e+00 3.837e-04 -1.561e-16
1.889e+00 0.000e+00 0.000e+00 3.506e-04 -2.363e-17
2.078e+00 0.000e+00 0.000e+00 3.272e-04 -1.487e-16
2.266e+00 0.000e+00 0.000e+00 3.150e-04 -2.421e-17
2.455e+00 0.000e+00 0.000e+00 3.150e-04 2.659e-17
2.644e+00 0.000e+00 0.000e+00 3.272e-04 1.153e-16
2.833e+00 0.000e+00 0.000e+00 3.506e-04 1.390e-16
3.022e+00 0.000e+00 0.000e+00 3.837e-04 2.438e-18
3.211e+00 0.000e+00 0.000e+00 4.243e-04 1.883e-16
3.400e+00 0.000e+00 0.000e+00 4.700e-04 1.688e-16
3.589e+00 0.000e+00 0.000e+00 5.184e-04 1.058e-16
3.777e+00 0.000e+00 0.000e+00 5.669e-04 1.400e-16
3.966e+00 0.000e+00 0.000e+00 6.124e-04 8.610e-17
4.155e+00 0.000e+00 0.000e+00 6.521e-04 2.229e-16
4.344e+00 0.000e+00 0.000e+00 6.831e-04 5.788e-17
4.533e+00 0.000e+00 0.000e+00 7.028e-04 3.931e-17
0.000e+00 1.889e-01 0.000e+00 7.096e-04 1.831e-17
1.889e-01 1.889e-01 0.000e+00 7.028e-04 6.041e-17
3.777e-01 1.889e-01 0.000e+00 6.831e-04 -3.493e-17
5.666e-01 1.889e-01 0.000e+00 6.521e-04 -9.696e-17
7.555e-01 1.889e-01 0.000e+00 6.124e-04 -5.532e-18
9.443e-01 1.889e-01 0.000e+00 5.669e-04 -1.316e-16
1.133e+00 1.889e-01 0.000e+00 5.184e-04 -2.478e-18
1.322e+00 1.889e-01 0.000e+00 4.700e-04 -1.258e-16
1.511e+00 1.889e-01 0.000e+00 4.243e-04 -2.664e-16
1.700e+00 1.889e-01 0.000e+00 3.837e-04 -1.561e-16
1.889e+00 1.889e-01 0.000e+00 3.506e-04 -2.363e-17
2.078e+00 1.889e-01 0.000e+00 3.272e-04 -1.487e-16
2.266e+00 1.889e-01 0.000e+00 3.150e-04 -2.421e-17
2.455e+00 1.889e-01 0.000e+00 3.150e-04 2.659e-17
2.644e+00 1.889e-01 0.000e+00 3.272e-04 1.153e-16
2.833e+00 1.889e-01 0.000e+00 3.506e-04 1.390e-16
3.022e+00 1.889e-01 0.000e+00 3.837e-04 2.438e-18
3.211e+00 1.889e-01 0.000e+00 4.243e-04 1.883e-16
3.400e+00 1.889e-01 0.000e+00 4.700e-04 1.688e-16
3.589e+00 1.889e-01 0.000e+00 5.184e-04 1.058e-16
3.777e+00 1.889e-01 0.000e+00 5.669e-04 1.400e-16
3.966e+00 1.889e-01 0.000e+00 6.124e-04 8.610e-17
4.155e+00 1.889e-01 0.000e+00 6.521e-04 2.229e-16
4.344e+00 1.889e-01 0.000e+00 6.831e-04 5.788e-17
4.533e+00 1.889e-01 0.000e+00 7.028e-04 3.931e-17
0.000e+00 3.777e-01 0.000e+00 7.096e-04 1.831e-17
1.889e-01 3.777e-01 0.000e+00 7.028e-04 6.041e-17
3.777e-01 3.777e-01 0.000e+00 6.831e-04 -3.493e-17
5.666e-01 3.777e-01 0.000e+00 6.521e-04 -9.696e-17
7.555e-01 3.777e-01 0.000e+00 6.124e-04 -5.532e-18
9.443e-01 3.777e-01 0.000e+00 5.669e-04 -1.316e-16
1.133e+00 3.777e-01 0.000e+00 5.184e-04 -2.478e-18
1.322e+00 3.777e-01 0.000e+00 4.700e-04 -1.258e-16
1.511e+00 3.777e-01 0.000e+00 4.243e-04 -2.664e-16
1.700e+00 3.777e-01 0.000e+00 3.837e-04 -1.561e-16
1.889e+00 3.777e-01 0.000e+00 3.506e-04 -2.363e-17
2.078e+00 3.777e-01 0.000e+00 3.272e-04 -1.487e-16
2.266e+00 3.777e-01 0.000e+00 3.150e-04 -2.421e-17
2.455e+00 3.777e-01 0.000e+00 3.150e-04 2.659e-17
2.644e+00 3.777e-01 0.000e+00 3.272e-04 1.153e-16
2.833e+00 3.777e-01 0.000e+00 3.506e-04 1.390e-16
3.022e+00 3.777e-01 0.000e+00 3.837e-04 2.438e-18
3.211e+00 3.777e-01 0.000e+00 4.243e-04 1.883e-16
3.400e+00 3.777e-01 0.000e+00 4.700e-04 1.688e-16
3.589e+00 3.777e-01 0.000e+00 5.184e-04 1.058e-16
3.777e+00 3.777e-01 0.000e+00 5.669e-04 1.400e-16
3.966e+00 3.777e-01 0.000e+00 6.124e-04 8.610e-17
4.155e+00 3.777e-01 0.000e+00 6.521e-04 2.229e-16
4.344e+00 3.777e-01 0.000e+00 6.831e-04 5.788e-17
4.533e+00 3.777e-01 0.000e+00 7.028e-04 3.931e-17
0.000e+00 5.666e-01 0.000e+00 7.096e-04 1.831e-17
1.889e-01 5.666e-01 0.000e+00 7.028e-04 6.041e-17
3.777e-01 5.666e-01 0.000e+00 6.831e-04 -3.493e-17
5.666e-01 5.666e-01 0.000e+00 6.521e-04 -9.696e-17
7.555e-01 5.666e-01 0.000e+00 6.124e-04 -5.532e-18
9.443e-01 5.666e-01 0.000e+00 5.669e-04 -1.316e-16
1.133e+00 5.666e-01 0.000e+00 5.184e-04 -2.478e-18
1.322e+00 5.666e-01 0.000e+00 4.700e-04 -1.258e-16
1.511e+00 5.666e-01 0.000e+00 4.243e-04 -2.664e-16
1.700e+00 5.666e-01 0.000e+00 3.837e-04 -1.561e-16
1.889e+00 5.666e-01 0.000e+00 3.506e-04 -2.363e-17
2.078e+00 5.666e-01 0.000e+00 3.272e-04 -1.487e-16
2.266e+00 5.666e-01 0.000e+00 3.150e-04 -2.421e-17
2.455e+00 5.666e-01 0.000e+00 3.150e-04 2.659e-17
2.644e+00 5.666e-01 0.000e+00 3.272e-04 1.153e-16
2.833e+00 5.666e-01 0.000e+00 3.506e-04 1.390e-16
3.022e+00 5.666e-01 0.000e+00 3.837e-04 2.438e-18
3.211e+00 5.666e-01 0.000e+00 4.243e-04 1.883e-16
3.400e+00 5.666e-01 0.000e+00 4.700e-04 1.688e-16
3.589e+00 5.666e-01 0.000e+00 5.184e-04 1.058e-16
3.777e+00 5.666e-01 0.000e+00 5.669e-04 1.400e-16
3.966e+00 5.666e-01 0.000e+00 6.124e-04 8.610e-17
4.155e+00 5.666e-01 0.000e+00 6.521e-04 2.229e-16
4.344e+00 5.666e-01 0.000e+00 6.831e-04 5.788e-17
4.533e+00 5.666e-01 0.000e+00 7.028e-04 3.931e-17
0.000e+00 7.555e-01 0.000e+00 7.096e-04 1.831e-17
1.889e-01 7.555e-01 0.000e+00 7.028e-04 6.041e-17
3.777e-01 7.555e-01 0.000e+00 6.831e-04 -3.493e-17
5.666e-01 7.555e-01 0.000e+00 6.521e-04 -9.696e-17
7.555e-01 7.555e-01 0.000e+00 6.124e-04 -5.532e-18
9.443e-01 7.555e-01 0.000e+00 5.669e-04 -1.316e-16
1.133e+00 7.555e-01 0.000e+00 5.184e-04 -2.478e-18
1.322e+00 7.555e-01 0.000e+00 4.700e-04 -1.258e-16
1.511e+00 7.555e-01 0.000e+00 4.243e-04 -2.664e-16
1.700e+00 7.555e-01 0.000e+00 3.837e-04 -1.561e-16
1.889e+00 7.555e-01 0.000e+00 3.506e-04 -2.363e-17
2.078e+00 7.555e-01 0.000e+00 3.272e-04 -1.487e-16
2.266e+00 7.555e-01 0.000e+00 3.150e-04 -2.421e-17
2.455e+00 7.555e-01 0.000e+00 3.150e-04 2.659e-17
2.644e+00 7.555e-01 0.000e+00 3.272e-04 1.153e-16
2.833e+00 7.555e-01 0.000e+00 3.506e-04 1.390e-16
3.022e+00 7.555e-01 0.000e+00 3.837e-04 2.438e-18
3.211e+00 7.555e-01 0.000e+00 4.243e-04 1.883e-16
3.400e+00 7.555e-01 0.000e+00 4.700e-04 1.688e-16
3.589e+00 7.555e-01 0.000e+00 5.184e-04 1.058e-16
3.777e+00 7.555e-01 0.000e+00 5.669e-04 1.400e-16
3.966e+00 7.555e-01 0.000e+00 6.124e-04 8.610e-17
4.155e+00 7.555e-01 0.000e+00 6.521e-04 2.229e-16
4.344e+00 7.555e-01 0.000e+00 6.831e-04 5.788e-17
4.533e+00 7.555e-01 0.000e+00 7.028e-04 3.931e-17
0.000e+00 9.443e-01 0.000e+00 7.096e-04 1.831e-17
1.889e-01 9.443e-01 0.000e+00 7.028e-04 6.041e-17
3.777e-01 9.443e-01 0.000e+00 6.831e-04 -3.493e-17
5.666e-01 9.443e-01 0.000e+00 6.521e-04 -9.696e-17
7.555e-01 9.443e-01 0.000e+00 6.124e-04 -5.532e-18
9.443e-01 9.443e-01 0.000e+00 5.669e-04 -1.316e-16
1.133e+00 9.443e-01 0.000e+00 5.184e-04 -2.478e-18
1.322e+00 9.443e-01 0.000e+00 4.700e-04 -1.258e-16
1.511e+00 9.443e-01 0.000e+00 4.243e-04 -2.664e-16
1.700e+00 9.443e-01 0.000e+00 3.837e-04 -1.561e-16
1.889e+00 9.443e-01 0.000e+00 3.506e-04 -2.363e-17
2.078e+00 9.443e-01 0.000e+00 3.272e-04 -1.487e-16
2.266e+00 9.443e-01 0.000e+00 3.150e-04 -2.421e-17
2.455e+00 9.443e-01 0.000e+00 3.150e-04 2.659e-17
2.644e+00 9.443e-01 0.000e+00 3.272e-04 1.153e-16
2.833e+00 9.443e-01 0.000e+00 3.506e-04 1.390e-16
3.022e+00 9.443e-01 0.000e+00 3.837e-04 2.438e-18
3.211e+00 9.443e-01 0.000e+00 4.243e-04 1.883e-16
3.400e+00 9.443e-01 0.000e+00 4.700e-04 1.688e-16
3.589e+00 9.443e-01 0.000e+00 5.184e-04 1.058e-16
3.777e+00 9.443e-01 0.000e+00 5.669e-04 1.400e-16
3.966e+00 9.443e-01 0.000e+00 6.124e-04 8.610e-17
4.155e+00 9.443e-01 0.000e+00 6.521e-04 2.229e-16
4.344e+00 9.443e-01 0.000e+00 6.831e-04 5.788e-17
4.533e+00 9.443e-01 0.000e+00 7.028e-04 3.931e-17
0.000e+00 1.133e+00 0.000e+00 7.096e-04 1.831e-17
1.889e-01 1.133e+00 0.000e+00 7.028e-04 6.041e-17
3.777e-01 1.133e+00 0.000e+00 6.831e-04 -3.493e-17
5.666e-01 1.133e+00 0.000e+00 6.521e-04 -9.696e-17
7.555e-01 1.133e+00 0.000e+00 6.124e-04 -5.532e-18
9.443e-01 1.133e+00 0.000e+00 5.669e-04 -1.316e-16
1.133e+00 1.133e+00 0.000e+00 5.184e-04 -2.478e-18
1.322e+00 1.133e+00 0.000e+00 4.700e-04 -1.258e-16
1.511e+00 1.133e+00 0.000e+00 4.243e-04 -2.664e-16
1.700e+00 1.133e+00 0.000e+00 3.837e-04 -1.561e-16
1.889e+00 1.133e+00 0.000e+00 3.506e-04 -2.363e-17
2.078e+00 1.133e+00 0.000e+00 3.272e-04 -1.487e-16
2.266e+00 1.133e+00 0.000e+00 3.150e-04 -2.421e-17
2.455e+00 1.133e+00 0.000e+00 3.150e-04 2.659e-17
2.644e+00 1.133e+00 0.000e+00 3.272e-04 1.153e-16
2.833e+00 1.133e+00 0.000e+00 3.506e-04 1.390e-16
3.022e+00 1.133e+00 0.000e+00 3.837e-04 2.438e-18
3.211e+00 1.133e+00 0.000e+00 4.243e-04 1.883e-16
3.400e+00 1.133e+00 0.000e+00 4.700e-04 1.688e-16
3.589e+00 1.133e+00 0.000e+00 5.184e-04 1.058e-16
3.777e+00 1.133e+00 0.000e+00 5.669e-04 1.400e-16
3.966e+00 1.133e+00 0.000e+00 6.124e-04 8.610e-17
4.155e+00 1.133e+00 0.000e+00 6.521e-04 2.229e-16
4.344e+00 1.133e+00 0.000e+00 6.831e-04 5.788e-17
4.533e+00 1.133e+00 0.000e+00 7.028e-04 3.931e-17
0.000e+00 1.322e+00 0.000e+00 7.096e-04 1.831e-17
1.889e-01 1.322e+00 0.000e+00 7.028e-04 6.041e-17
3.777e-01 1.322e+00 0.000e+00 6.831e-04 -3.493e-17
5.666e-01 1.322e+00 0.000e+00 6.521e-04 -9.696e-17
7.555e-01 1.322e+00 0.000e+00 6.124e-04 -5.532e-18
9.443e-01 1.322e+00 0.000e+00 5.669e-04 -1.316e-16
1.133e+00 1.322e+00 0.000e+00 5.184e-04 -2.478e-18
1.322e+00 1.322e+00 0.000e+00 4.700e-04 -1.258e-16
1.511e+00 1.322e+00 0.000e+00 4.243e-04 -2.664e-16
1.700e+00 1.322e+00 0.000e+00 3.837e-04 -1.561e-16
1.889e+00 1.322e+00 0.000e+00 3.506e-04 -2.363e-17
2.078e+00 1.322e+00 0.000e+00 3.272e-04 -1.487e-16
2.266e+00 1.322e+00 0.000e+00 3.150e-04 -2.421e-17
2.455e+00 1.322e+00 0.000e+00 3.150e-04 2.659e-17
2.644e+00 1.322e+00 0.000e+00 3.272e-04 1.153e-16
2.833e+00 1.322e+00 0.000e+00 3.506e-04 1.390e-16
3.022e+00 1.322e+00 0.000e+00 3.837e-04 2.438e-18
3.211e+00 1.322e+00 0.000e+00 4.243e-04 1.883e-16
3.400e+00 1.322e+00 0.000e+00 4.700e-04 1.688e-16
3.589e+00 1.322e+00 0.000e+00 5.184e-04 1.058e-16
3.777e+00 1.322e+00 0.000e+00 5.669e-04 1.400e-16
3.966e+00 1.322e+00 0.000e+00 6.124e-04 8.610e-17
4.155e+00 1.322e+00 0.000e+00 6.521e-04 2.229e-16
4.344e+00 1.322e+00 0.000e+00 6.831e-04 5.788e-17
4.533e+00 1.322e+00 0.000e+00 7.028e-04 3.931e-17
0.000e+00 1.511e+00 0.000e+00 7.096e-04 1.831e-17
1.889e-01 1.511e+00 0.000e+00 7.028e-04 6.041e-17
3.777e-01 1.511e+00 0.000e+00 6.831e-04 -3.493e-17
5.666e-01 1.511e+00 0.000e+00 6.521e-04 -9.696e-17
7.555e-01 1.511e+00 0.000e+00 6.124e-04 -5.532e-18
9.443e-01 1.511e+00 0.000e+00 5.669e-04 -1.316e-16
1.133e+00 1.511e+00 0.000e+00 5.184e-04 -2.478e-18
1.322e+00 1.511e+00 0.000e+00 4.700e-04 -1.258e-16
1.511e+00 1.511e+00 0.000e+00 4.243e-04 -2.664e-16
1.700e+00 1.511e+00 0.000e+00 3.837e-04 -1.561e-16
1.889e+00 1.511e+00 0.000e+00 3.506e-04 -2.363e-17
2.078e+00 1.511e+00 0.000e+00 3.272e-04 -1.487e-16
2.266e+00 1.511e+00 0.000e+00 3.150e-04 -2.421e-17
2.455e+00 1.511e+00 0.000e+00 3.150e-04 2.659e-17
2.644e+00 1.511e+00 0.000e+00 3.272e-04 1.153e-16
2.833e+00 1.511e+00 0.000e+00 3.506e-04 1.390e-16
3.022e+00 1.511e+00 0.000e+00 3.837e-04 2.438e-18
3.211e+00 1.511e+00 0.000e+00 4.243e-04 1.883e-16
3.400e+00 1.511e+00 0.000e+00 4.700e-04 1.688e-16
3.589e+00 1.511e+00 0.000e+00 5.184e-04 1.058e-16
3.777e+00 1.511e+00 0.000e+00 5.669e-04 1.400e-16
3.966e+00 1.511e+00 0.000e+00 6.124e-04 8.610e-17
4.155e+00 1.511e+00 0.000e+00 6.521e-04 2.229e-16
4.344e+00 1.511e+00 0.000e+00 6.831e-04 5.788e-17
4.533e+00 1.511e+00 0.000e+00 7.028e-04 3.931e-17
0.000e+00 1.700e+00 0.000e+00 7.096e-04 1.831e-17
1.889e-01 1.700e+00 0.000e+00 7.028e-04 6.041e-17
3.777e-01 1.700e+00 0.000e+00 6.831e-04 -3.493e-17
5.666e-01 1.700e+00 0.000e+00 6.521e-04 -9.696e-17
7.555e-01 1.700e+00 0.000e+00 6.124e-04 -5.532e-18
9.443e-01 1.700e+00 0.000e+00 5.669e-04 -1.316e-16
1.133e+00 1.700e+00 0.000e+00 5.184e-04 -2.478e-18
1.322e+00 1.700e+00 0.000e+00 4.700e-04 -1.258e-16
1.511e+00 1.700e+00 0.000e+00 4.243e-04 -2.664e-16
1.700e+00 1.700e+00 0.000e+00 3.837e-04 -1.561e-16
1.889e+00 1.700e+00 0.000e+00 3.506e-04 -2.363e-17
2.078e+00 1.700e+00 0.000e+00 3.272e-04 -1.487e-16
2.266e+00 1.700e+00 0.000e+00 3.150e-04 -2.421e-17
2.455e+00 1.700e+00 0.000e+00 3.150e-04 2.659e-17
2.644e+00 1.700e+00 0.000e+00 3.272e-04 1.153e-16
2.833e+00 1.700e+00 0.000e+00 3.506e-04 1.390e-16
3.022e+00 1.700e+00 0.000e+00 3.837e-04 2.438e-18
3.211e+00 1.700e+00 0.000e+00 4.243e-04 1.883e-16
3.400e+00 1.700e+00 0.000e+00 4.700e-04 1.688e-16
3.589e+00 1.700e+00 0.000e+00 5.184e-04 1.058e-16
3.777e+00 1.700e+00 0.000e+00 5.669e-04 1.400e-16
3.966e+00 1.700e+00 0.000e+00 6.124e-04 8.610e-17
4.155e+00 1.700e+00 0.000e+00 6.521e-04 2.229e-16
4.344e+00 1.700e+00 0.000e+00 6.831e-04 5.788e-17
4.533e+00 1.700e+00 0.000e+00 7.028e-04 3.931e-17
0.000e+00 1.889e+00 0.000e+00 7.096e-04 1.831e-17
1.889e-01 1.889e+00 0.000e+00 7.028e-04 6.041e-17
3.777e-01 1.889e+00 0.000e+00 6.831e-04 -3.493e-17
5.666e-01 1.889e+00 0.000e+00 6.521e-04 -9.696e-17
7.555e-01 1.889e+00 0.000e+00 6.124e-04 -5.532e-18
9.443e-01 1.889e+00 0.000e+00 5.669e-04 -1.316e-16
1.133e+00 1.889e+00 0.000e+00 5.184e-04 -2.478e-18
1.322e+00 1.889e+00 0.000e+00 4.700e-04 -1.258e-16
1.511e+00 1.889e+00 0.000e+00 4.243e-04 -2.664e-16
1.700e+00 1.889e+00 0.000e+00 3.837e-04 -1.561e-16
1.889e+00 1.889e+00 0.000e+00 3.506e-04 -2.363e-17
2.078e+00 1.889e+00 0.000e+00 3.272e-04 -1.487e-16
2.266e+00 1.889e+00 0.000e+00 3.150e-04 -2.421e-17
2.455e+00 1.889e+00 0.000e+00 3.150e-04 2.659e-17
2.644e+00 1.889e+00 0.000e+00 3.272e-04 1.153e-16
2.833e+00 1.889e+00 0.000e+00 3.506e-04 1.390e-16
3.022e+00 1.889e+00 0.000e+00 3.837e-04 2.438e-18
3.211e+00 1.889e+00 0.000e+00 4.243e-04 1.883e-16
3.400e+00 1.889e+00 0.000e+00 4.700e-04 1.688e-16
3.589e+00 1.889e+00 0.000e+00 5.184e-04 1.058e-16
3.777e+00 1.889e+00 0.000e+00 5.669e-04 1.400e-16
3.966e+00 1.889e+00 0.000e+00 6.124e-04 8.610e-17
4.155e+00 1.889e+00 0.000e+00 6.521e-04 2.229e-16
4.344e+00 1.889e+00 0.000e+00 6.831e-04 5.788e-17
4.533e+00 1.889e+00 0.000e+00 7.028e-04 3.931e-17
0.000e+00 2.078e+00 0.000e+00 7.096e-04 1.831e-17
1.889e-01 2.078e+00 0.000e+00 7.028e-04 6.041e-17
3.777e-01 2.078e+00 0.000e+00 6.831e-04 -3.493e-17
5.666e-01 2.078e+00 0.000e+00 6.521e-04 -9.696e-17
7.555e-01 2.078e+00 0.000e+00 6.124e-04 -5.532e-18
9.443e-01 2.078e+00 0.000e+00 5.669e-04 -1.316e-16
1.133e+00 2.078e+00 0.000e+00 5.184e-04 -2.478e-18
1.322e+00 2.078e+00 0.000e+00 4.700e-04 -1.258e-16
1.511e+00 2.078e+00 0.000e+00 4.243e-04 -2.664e-16
1.700e+00 2.078e+00 0.000e+00 3.837e-04 -1.561e-16
1.889e+00 2.078e+00 0.000e+00 3.506e-04 -2.363e-17
2.078e+00 2.078e+00 0.000e+00 3.272e-04 -1.487e-16
2.266e+00 2.078e+00 0.000e+00 3.150e-04 -2.421e-17
2.455e+00 2.078e+00 0.000e+00 3.150e-04 2.659e-17
2.644e+00 2.078e+00 0.000e+00 3.272e-04 1.153e-16
2.833e+00 2.078e+00 0.000e+00 3.506e-04 1.390e-16
3.022e+00 2.078e+00 0.000e+00 3.837e-04 2.438e-18
3.211e+00 2.078e+00 0.000e+00 4.243e-04 1.883e-16
3.400e+00 2.078e+00 0.000e+00 4.700e-04 1.688e-16
3.589e+00 2.078e+00 0.000e+00 5.184e-04 1.058e-16
3.777e+00 2.078e+00 0.000e+00 5.669e-04 1.400e-16
3.966e+00 2.078e+00 0.000e+00 6.124e-04 8.610e-17
4.155e+00 2.078e+00 0.000e+00 6.521e-04 2.229e-16
4.344e+00 2.078e+00 0.000e+00 6.831e-04 5.788e-17
4.533e+00 2.078e+00 0.000e+00 7.028e-04 3.931e-17
0.000e+00 2.266e+00 0.000e+00 7.096e-04 1.831e-17
1.889e-01 2.266e+00 0.000e+00 7.028e-04 6.041e-17
3.777e-01 2.266e+00 0.000e+00 6.831e-04 -3.493e-17
5.666e-01 2.266e+00 0.000e+00 6.521e-04 -9.696e-17
7.555e-01 2.266e+00 0.000e+00 6.124e-04 -5.532e-18
9.443e-01 2.266e+00 0.000e+00 5.669e-04 -1.316e-16
1.133e+00 2.266e+00 0.000e+00 5.184e-04 -2.478e-18
1.322e+00 2.266e+00 0.000e+00 4.700e-04 -1.258e-16
1.511e+00 2.266e+00 0.000e+00 4.243e-04 -2.664e-16
1.700e+00 2.266e+00 0.000e+00 3.837e-04 -1.561e-16
1.889e+00 2.266e+00 0.000e+00 3.506e-04 -2.363e-17
2.078e+00 2.266e+00 0.000e+00 3.272e-04 -1.487e-16
2.266e+00 2.266e+00 0.000e+00 3.150e-04 -2.421e-17
2.455e+00 2.266e+00 0.000e+00 3.150e-04 2.659e-17
2.644e+00 2.266e+00 0.000e+00 3.272e-04 1.153e-16
2.833e+00 2.266e+00 0.000e+00 3.506e-04 1.390e-16
3.022e+00 2.266e+00 0.000e+00 3.837e-04 2.438e-18
3.211e+00 2.266e+00 0.000e+00 4.243e-04 1.883e-16
3.400e+00 2.266e+00 0.000e+00 4.700e-04 1.688e-16
3.589e+00 2.266e+00 0.000e+00 5.184e-04 1.058e-16
3.777e+00 2.266e+00 0.000e+00 5.669e-04 1.400e-16
3.966e+00 2.266e+00 0.000e+00 6.124e-04 8.610e-17
4.155e+00 2.266e+00 0.000e+00 6.521e-04 2.229e-16
4.344e+00 2.266e+00 0.000e+00 6.831e-04 5.788e-17
4.533e+00 2.266e+00 0.000e+00 7.028e-04 3.931e-17
0.000e+00 2.455e+00 0.000e+00 7.096e-04 1.831e-17
1.889e-01 2.455e+00 0.000e+00 7.028e-04 6.041e-17
3.777e-01 2.455e+00 0.000e+00 6.831e-04 -3.493e-17
5.666e-01 2.455e+00 0.000e+00 6.521e-04 -9.696e-17
7.555e-01 2.455e+00 0.000e+00 6.124e-04 -5.532e-18
9.443e-01 2.455e+00 0.000e+00 5.669e-04 -1.316e-16
1.133e+00 2.455e+00 0.000e+00 5.184e-04 -2.478e-18
1.322e+00 2.455e+00 0.000e+00 4.700e-04 -1.258e-16
1.511e+00 2.455e+00 0.000e+00 4.243e-04 -2.664e-16
1.700e+00 2.455e+00 0.000e+00 3.837e-04 -1.561e-16
1.889e+00 2.455e+00 0.000e+00 3.506e-04 -2.363e-17
2.078e+00 2.455e+00 0.000e+00 3.272e-04 -1.487e-16
2.266e+00 2.455e+00 0.000e+00 3.150e-04 -2.421e-17
2.455e+00 2.455e+00 0.000e+00 3.150e-04 2.659e-17
2.644e+00 2.455e+00 0.000e+00 3.272e-04 1.153e-16
2.833e+00 2.455e+00 0.000e+00 3.506e-04 1.390e-16
3.022e+00 2.455e+00 0.000e+00 3.837e-04 2.438e-18
3.211e+00 2.455e+00 0.000e+00 4.243e-04 1.883e-16
3.400e+00 2.455e+00 0.000e+00 4.700e-04 1.688e-16
3.589e+00 2.455e+00 0.000e+00 5.184e-04 1.058e-16
3.777e+00 2.455e+00 0.000e+00 5.669e-04 1.400e-16
3.966e+00 2.455e+00 0.000e+00 6.124e-04 8.610e-17
4.155e+00 2.455e+00 0.000e+00 6.521e-04 2.229e-16
4.344e+00 2.455e+00 0.000e+00 6.831e-04 5.788e-17
4.533e+00 2.455e+00 0.000e+00 7.028e-04 3.931e-17
0.000e+00 2.644e+00 0.000e+00 7.096e-04 1.831e-17
1.889e-01 2.644e+00 0.000e+00 7.028e-04 6.041e-17
3.777e-01 2.644e+00 0.000e+00 6.831e-04 -3.493e-17
5.666e-01 2.644e+00 0.000e+00 6.521e-04 -9.696e-17
7.555e-01 2.644e+00 0.000e+00 6.124e-04 -5.532e-18
9.443e-01 2.644e+00 0.000e+00 5.669e-04 -1.316e-16
1.133e+00 2.644e+00 0.000e+00 5.184e-04 -2.478e-18
1.322e+00 2.644e+00 0.000e+00 4.700e-04 -1.258e-16
1.511e+00 2.644e+00 0.000e+00 4.243e-04 -2.664e-16
1.700e+00 2.644e+00 0.000e+00 3.837e-04 -1.561e-16
1.889e+00 2.644e+00 0.000e+00 3.506e-04 -2.363e-17
2.078e+00 2.644e+00 0.000e+00 3.272e-04 -1.487e-16
2.266e+00 2.644e+00 0.000e+00 3.150e-04 -2.421e-17
2.455e+00 2.644e+00 0.000e+00 3.150e-04 2.659e-17
2.644e+00 2.644e+00 0.000e+00 3.272e-04 1.153e-16
2.833e+00 2.644e+00 0.000e+00 3.506e-04 1.390e-16
3.022e+00 2.644e+00 0.000e+00 3.837e-04 2.438e-18
3.211e+00 2.644e+00 0.000e+00 4.243e-04 1.883e-16
3.400e+00 2.644e+00 0.000e+00 4.700e-04 1.688e-16
3.589e+00 2.644e+00 0.000e+00 5.184e-04 1.058e-16
3.777e+00 2.644e+00 0.000e+00 5.669e-04 1.400e-16
3.966e+00 2.644e+00 0.000e+00 6.124e-04 8.610e-17
4.155e+00 2.644e+00 0.000e+00 6.521e-04 2.229e-16
4.344e+00 2.644e+00 0.000e+00 6.831e-04 5.788e-17
4.533e+00 2.644e+00 0.000e+00 7.028e-04 3.931e-17
0.000e+00 2.833e+00 0.000e+00 7.096e-04 1.831e-17
1.889e-01 2.833e+00 0.000e+00 7.028e-04 6.041e-17
3.777e-01 2.833e+00 0.000e+00 6.831e-04 -3.493e-17
5.666e-01 2.833e+00 0.000e+00 6.521e-04 -9.696e-17
7.555e-01 2.833e+00 0.000e+00 6.124e-04 -5.532e-18
9.443e-01 2.833e+00 0.000e+00 5.669e-04 -1.316e-16
1.133e+00 2.833e+00 0.000e+00 5.184e-04 -2.478e-18
1.322e+00 2.833e+00 0.000e+00 4.700e-04 -1.258e-16
1.511e+00 2.833e+00 0.000e+00 4.243e-04 -2.664e-16
1.700e+00 2.833e+00 0.000e+00 3.837e-04 -1.561e-16
1.889e+00 2.833e+00 0.000e+00 3.506e-04 -2.363e-17
2.078e+00 2.833e+00 0.000e+00 3.272e-04 -1.487e-16
2.266e+00 2.833e+00 0.000e+00 3.150e-04 -2.421e-17
2.455e+00 2.833e+00 0.000e+00 3.150e-04 2.659e-17
2.644e+00 2.833e+00 0.000e+00 3.272e-04 1.153e-16
2.833e+00 2.833e+00 0.000e+00 3.506e-04 1.390e-16
3.022e+00 2.833e+00 0.000e+00 3.837e-04 2.438e-18
3.211e+00 2.833e+00 0.000e+00 4.243e-04 1.883e-16
3.400e+00 2.833e+00 0.000e+00 4.700e-04 1.688e-16
3.589e+00 2.833e+00 0.000e+00 5.184e-04 1.058e-16
3.777e+00 2.833e+00 0.000e+00 5.669e-04 1.400e-16
3.966e+00 2.833e+00 0.000e+00 6.124e-04 8.610e-17
4.155e+00 2.833e+00 0.000e+00 6.521e-04 2.229e-16
4.344e+00 2.833e+00 0.000e+00 6.831e-04 5.788e-17
4.533e+00 2.833e+00 0.000e+00 7.028e-04 3.931e-17
0.000e+00 3.022e+00 0.000e+00 7.096e-04 1.831e-17
1.889e-01 3.022e+00 0.000e+00 7.028e-04 6.041e-17
3.777e-01 3.022e+00 0.000e+00 6.831e-04 -3.493e-17
5.666e-01 3.022e+00 0.000e+00 6.521e-04 -9.696e-17
7.555e-01 3.022e+00 0.000e+00 6.124e-04 -5.532e-18
9.443e-01 3.022e+00 0.000e+00 5.669e-04 -1.316e-16
1.133e+00 3.022e+00 0.000e+00 5.184e-04 -2.478e-18
1.322e+00 3.022e+00 0.000e+00 4.700e-04 -1.258e-16
1.511e+00 3.022e+00 0.000e+00 4.243e-04 -2.664e-16
1.700e+00 3.022e+00 0.000e+00 3.837e-04 -1.561e-16
1.889e+00 3.022e+00 0.000e+00 3.506e-04 -2.363e-17
2.078e+00 3.022e+00 0.000e+00 3.272e-04 -1.487e-16
2.266e+00 3.022e+00 0.000e+00 3.150e-04 -2.421e-17
2.455e+00 3.022e+00 0.000e+00 3.150e-04 2.659e-17
2.644e+00 3.022e+00 0.000e+00 3.272e-04 1.153e-16
2.833e+00 3.022e+00 0.000e+00 3.506e-04 1.390e-16
3.022e+00 3.022e+00 0.000e+00 3.837e-04 2.438e-18
3.211e+00 3.022e+00 0.000e+00 4.243e-04 1.883e-16
3.400e+00 3.022e+00 0.000e+00 4.700e-04 1.688e-16
3.589e+00 3.022e+00 0.000e+00 5.184e-04 1.058e-16
3.777e+00 3.022e+00 0.000e+00 5.669e-04 1.400e-16
3.966e+00 3.022e+00 0.000e+00 6.124e-04 8.610e-17
4.155e+00 3.022e+00 0.000e+00 6.521e-04 2.229e-16
4.344e+00 3.022e+00 0.000e+00 6.831e-04 5.788e-17
4.533e+00 3.022e+00 0.000e+00 7.028e-04 3.931e-17
0.000e+00 3.211e+00 0.000e+00 7.096e-04 1.831e-17
1.889e-01 3.211e+00 0.000e+00 7.028e-04 6.041e-17
3.777e-01 3.211e+00 0.000e+00 6.831e-04 -3.493e-17
5.666e-01 3.211e+00 0.000e+00 6.521e-04 -9.696e-17
7.555e-01 3.211e+00 0.000e+00 6.124e-04 -5.532e-18
9.443e-01 3.211e+00 0.000e+00 5.669e-04 -1.316e-16
1.133e+00 3.211e+00 0.000e+00 5.184e-04 -2.478e-18
1.322e+00 3.211e+00 0.000e+00 4.700e-04 -1.258e-16
1.511e+00 3.211e+00 0.000e+00 4.243e-04 -2.664e-16
1.700e+00 3.211e+00 0.000e+00 3.837e-04 -1.561e-16
1.889e+00 3.211e+00 0.000e+00 3.506e-04 -2.363e-17
2.078e+00 3.211e+00 0.000e+00 3.272e-04 -1.487e-16
2.266e+00 3.211e+00 0.000e+00 3.150e-04 -2.421e-17
2.455e+00 3.211e+00 0.000e+00 3.150e-04 2.659e-17
2.644e+00 3.211e+00 0.000e+00 3.272e-04 1.153e-16
2.833e+00 3.211e+00 0.000e+00 3.506e-04 1.390e-16
3.022e+00 3.211e+00 0.000e+00 3.837e-04 2.438e-18
3.211e+00 3.211e+00 0.000e+00 4.243e-04 1.883e-16
3.400e+00 3.211e+00 0.000e+00 4.700e-04 1.688e-16
3.589e+00 3.211e+00 0.000e+00 5.184e-04 1.058e-16
3.777e+00 3.211e+00 0.000e+00 5.669e-04 1.400e-16
3.966e+00 3.211e+00 0.000e+00 6.124e-04 8.610e-17
4.155e+00 3.211e+00 0.000e+00 6.521e-04 2.229e-16
4.344e+00 3.211e+00 0.000e+00 6.831e-04 5.788e-17
4.533e+00 3.211e+00 0.000e+00 7.028e-04 3.931e-17
0.000e+00 3.400e+00 0.000e+00 7.096e-04 1.831e-17
1.889e-01 3.400e+00 0.000e+00 7.028e-04 6.041e-17
3.777e-01 3.400e+00 0.000e+00 6.831e-04 -3.493e-17
5.666e-01 3.400e+00 0.000e+00 6.521e-04 -9.696e-17
7.555e-01 3.400e+00 0.000e+00 6.124e-04 -5.532e-18
9.443e-01 3.400e+00 0.000e+00 5.669e-04 -1.316e-16
1.133e+00 3.400e+00 0.000e+00 5.184e-04 -2.478e-18
1.322e+00 3.400e+00 0.000e+00 4.700e-04 -1.258e-16
1.511e+00 3.400e+00 0.000e+00 4.243e-04 -2.664e-16
1.700e+00 3.400e+00 0.000e+00 3.837e-04 -1.561e-16
1.889e+00 3.400e+00 0.000e+00 3.506e-04 -2.363e-17
2.078e+00 3.400e+00 0.000e+00 3.272e-04 -1.487e-16
2.266e+00 3.400e+00 0.000e+00 3.150e-04 -2.421e-17
2.455e+00 3.400e+00 0.000e+00 3.150e-04 2.659e-17
2.644e+00 3.400e+00 0.000e+00 3.272e-04 1.153e-16
2.833e+00 3.400e+00 0.000e+00 3.506e-04 1.390e-16
3.022e+00 3.400e+00 0.000e+00 3.837e-04 2.438e-18
3.211e+00 3.400e+00 0.000e+00 4.243e-04 1.883e-16
3.400e+00 3.400e+00 0.000e+00 4.700e-04 1.688e-16
3.589e+00 3.400e+00 0.000e+00 5.184e-04 1.058e-16
3.777e+00 3.400e+00 0.000e+00 5.669e-04 1.400e-16
3.966e+00 3.400e+00 0.000e+00 6.124e-04 8.610e-17
4.155e+00 3.400e+00 0.000e+00 6.521e-04 2.229e-16
4.344e+00 3.400e+00 0.000e+00 6.831e-04 5.788e-17
4.533e+00 3.400e+00 0.000e+00 7.028e-04 3.931e-17
0.000e+00 3.589e+00 0.000e+00 7.096e-04 1.831e-17
1.889e-01 3.589e+00 0.000e+00 7.028e-04 6.041e-17
3.777e-01 3.589e+00 0.000e+00 6.831e-04 -3.493e-17
5.666e-01 3.589e+00 0.000e+00 6.521e-04 -9.696e-17
7.555e-01 3.589e+00 0.000e+00 6.124e-04 -5.532e-18
9.443e-01 3.589e+00 0.000e+00 5.669e-04 -1.316e-16
1.133e+00 3.589e+00 0.000e+00 5.184e-04 -2.478e-18
1.322e+00 3.589e+00 0.000e+00 4.700e-04 -1.258e-16
1.511e+00 3.589e+00 0.000e+00 4.243e-04 -2.664e-16
1.700e+00 3.589e+00 0.000e+00 3.837e-04 -1.561e-16
1.889e+00 3.589e+00 0.000e+00 3.506e-04 -2.363e-17
2.078e+00 3.589e+00 0.000e+00 3.272e-04 -1.487e-16
2.266e+00 3.589e+00 0.000e+00 3.150e-04 -2.421e-17
2.455e+00 3.589e+00 0.000e+00 3.150e-04 2.659e-17
2.644e+00 3.589e+00 0.000e+00 3.272e-04 1.153e-16
2.833e+00 3.589e+00 0.000e+00 3.506e-04 1.390e-16
3.022e+00 3.589e+00 0.000e+00 3.837e-04 2.438e-18
3.211e+00 3.589e+00 0.000e+00 4.243e-04 1.883e-16
3.400e+00 3.589e+00 0.000e+00 4.700e-04 1.688e-16
3.589e+00 3.589e+00 0.000e+00 5.184e-04 1.058e-16
3.777e+00 3.589e+00 0.000e+00 5.669e-04 1.400e-16
3.966e+00 3.589e+00 0.000e+00 6.124e-04 8.610e-17
4.155e+00 3.589e+00 0.000e+00 6.521e-04 2.229e-16
4.344e+00 3.589e+00 0.000e+00 6.831e-04 5.788e-17
4.533e+00 3.589e+00 0.000e+00 7.028e-04 3.931e-17
0.000e+00 3.777e+00 0.000e+00 7.096e-04 1.831e-17
1.889e-01 3.777e+00 0.000e+00 7.028e-04 6.041e-17
3.777e-01 3.777e+00 0.000e+00 6.831e-04 -3.493e-17
5.666e-01 3.777e+00 0.000e+00 6.521e-04 -9.696e-17
7.555e-01 3.777e+00 0.000e+00 6.124e-04 -5.532e-18
9.443e-01 3.777e+00 0.000e+00 5.669e-04 -1.316e-16
1.133e+00 3.777e+00 0.000e+00 5.184e-04 -2.478e-18
1.322e+00 3.777e+00 0.000e+00 4.700e-04 -1.258e-16
1.511e+00 3.777e+00 0.000e+00 4.243e-04 -2.664e-16
1.700e+00 3.777e+00 0.000e+00 3.837e-04 -1.561e-16
1.889e+00 3.777e+00 0.000e+00 3.506e-04 -2.363e-17
2.078e+00 3.777e+00 0.000e+00 3.272e-04 -1.487e-16
2.266e+00 3.777e+00 0.000e+00 3.150e-04 -2.421e-17
2.455e+00 3.777e+00 0.000e+00 3.150e-04 2.659e-17
2.644e+00 3.777e+00 0.000e+00 3.272e-04 1.153e-16
2.833e+00 3.777e+00 0.000e+00 3.506e-04 1.390e-16
3.022e+00 3.777e+00 0.000e+00 3.837e-04 2.438e-18
3.211e+00 3.777e+00 0.000e+00 4.243e-04 1.883e-16
3.400e+00 3.777e+00 0.000e+00 4.700e-04 1.688e-16
3.589e+00 3.777e+00 0.000e+00 5.184e-04 1.058e-16
3.777e+00 3.777e+00 0.000e+00 5.669e-04 1.400e-16
3.966e+00 3.777e+00 0.000e+00 6.124e-04 8.610e-17
4.155e+00 3.777e+00 0.000e+00 6.521e-04 2.229e-16
4.344e+00 3.777e+00 0.000e+00 6.831e-04 5.788e-17
4.533e+00 3.777e+00 0.000e+00 7.028e-04 3.931e-17
0.000e+00 3.966e+00 0.000e+00 7.096e-04 1.831e-17
1.889e-01 3.966e+00 0.000e+00 7.028e-04 6.041e-17
3.777e-01 3.966e+00 0.000e+00 6.831e-04 -3.493e-17
5.666e-01 3.966e+00 0.000e+00 6.521e-04 -9.696e-17
7.555e-01 3.966e+00 0.000e+00 6.124e-04 -5.532e-18
9.443e-01 3.966e+00 0.000e+00 5.669e-04 -1.316e-16
1.133e+00 3.966e+00 0.000e+00 5.184e-04 -2.478e-18
1.322e+00 3.966e+00 0.000e+00 4.700e-04 -1.258e-16
1.511e+00 3.966e+00 0.000e+00 4.243e-04 -2.664e-16
1.700e+00 3.966e+00 0.000e+00 3.837e-04 -1.561e-16
1.889e+00 3.966e+00 0.000e+00 3.506e-04 -2.363e-17
2.078e+00 3.966e+00 0.000e+00 3.272e-04 -1.487e-16
2.266e+00 3.966e+00 0.000e+00 3.150e-04 -2.421e-17
2.455e+00 3.966e+00 0.000e+00 3.150e-04 2.659e-17
2.644e+00 3.966e+00 0.000e+00 3.272e-04 1.153e-16
2.833e+00 3.966e+00 0.000e+00 3.506e-04 1.390e-16
3.022e+00 3.966e+00 0.000e+00 3.837e-04 2.438e-18
3.211e+00 3.966e+00 0.000e+00 4.243e-04 1.883e-16
3.400e+00 3.966e+00 0.000e+00 4.700e-04 1.688e-16
3.589e+00 3.966e+00 0.000e+00 5.184e-04 1.058e-16
3.777e+00 3.966e+00 0.000e+00 5.669e-04 1.400e-16
3.966e+00 3.966e+00 0.000e+00 6.124e-04 8.610e-17
4.155e+00 3.966e+00 0.000e+00 6.521e-04 2.229e-16
4.344e+00 3.966e+00 0.000e+00 6.831e-04 5.788e-17
4.533e+00 3.966e+00 0.000e+00 7.028e-04 3.931e-17
0.000e+00 4.155e+00 0.000e+00 7.096e-04 1.831e-17
1.889e-01 4.155e+00 0.000e+00 7.028e-04 6.041e-17
3.777e-01 4.155e+00 0.000e+00 6.831e-04 -3.493e-17
5.666e-01 4.155e+00 0.000e+00 6.521e-04 -9.696e-17
7.555e-01 4.155e+00 0.000e+00 6.124e-04 -5.532e-18
9.443e-01 4.155e+00 0.000e+00 5.669e-04 -1.316e-16
1.133e+00 4.155e+00 0.000e+00 5.184e-04 -2.478e-18
1.322e+00 4.155e+00 0.000e+00 4.700e-04 -1.258e-16
1.511e+00 4.155e+00 0.000e+00 4.243e-04 -2.664e-16
1.700e+00 4.155e+00 0.000e+00 3.837e-04 -1.561e-16
1.889e+00 4.155e+00 0.000e+00 3.506e-04 -2.363e-17
2.078e+00 4.155e+00 0.000e+00 3.272e-04 -1.487e-16
2.266e+00 4.155e+00 0.000e+00 3.150e-04 -2.421e-17
2.455e+00 4.155e+00 0.000e+00 3.150e-04 2.659e-17
2.644e+00 4.155e+00 0.000e+00 3.272e-04 1.153e-16
2.833e+00 4.155e+00 0.000e+00 3.506e-04 1.390e-16
3.022e+00 4.155e+00 0.000e+00 3.837e-04 2.438e-18
3.211e+00 4.155e+00 0.000e+00 4.243e-04 1.883e-16
3.400e+00 4.155e+00 0.000e+00 4.700e-04 1.688e-16
3.589e+00 4.155e+00 0.000e+00 5.184e-04 1.058e-16
3.777e+00 4.155e+00 0.000e+00 5.669e-04 1.400e-16
3.966e+00 4.155e+00 0.000e+00 6.124e-04 8.610e-17
4.155e+00 4.155e+00 0.000e+00 6.521e-04 2.229e-16
4.344e+00 4.155e+00 0.000e+00 6.831e-04 5.788e-17
4.533e+00 4.155e+00 0.000e+00 7.028e-04 3.931e-17
0.000e+00 4.344e+00 0.000e+00 7.096e-04 1.831e-17
1.889e-01 4.344e+00 0.000e+00 7.028e-04 6.041e-17
3.777e-01 4.344e+00 0.000e+00 6.831e-04 -3.493e-17
5.666e-01 4.344e+00 0.000e+00 6.521e-04 -9.696e-17
7.555e-01 4.344e+00 0.000e+00 6.124e-04 -5.532e-18
9.443e-01 4.344e+00 0.000e+00 5.669e-04 -1.316e-16
1.133e+00 4.344e+00 0.000e+00 5.184e-04 -2.478e-18
1.322e+00 4.344e+00 0.000e+00 4.700e-04 -1.258e-16
1.511e+00 4.344e+00 0.000e+00 4.243e-04 -2.664e-16
1.700e+00 4.344e+00 0.000e+00 3.837e-04 -1.561e-16
1.889e+00 4.344e+00 0.000e+00 3.506e-04 -2.363e-17
2.078e+00 4.344e+00 0.000e+00 3.272e-04 -1.487e-16
2.266e+00 4.344e+00 0.000e+00 3.150e-04 -2.421e-17
2.455e+00 4.344e+00 0.000e+00 3.150e-04 2.659e-17
2.644e+00 4.344e+00 0.000e+00 3.272e-04 1.153e-16
2.833e+00 4.344e+00 0.000e+00 3.506e-04 1.390e-16
3.022e+00 4.344e+00 0.000e+00 3.837e-04 2.438e-18