TITLE = "rhodb_c"
VARIABLES = "X", "Y", "Z", "Real", "Imaginary"
ZONE I=25, J=25, K=75, F=POINT
0.000e+00 0.000e+00 0.000e+00 7.566e-05 1.218e-18
1.889e-01 0.000e+00 0.000e+00 7.510e-05 -1.375e-16
3.777e-01 0.000e+00 0.000e+00 7.342e-05 -1.293e-16
5.666e-01 0.000e+00 0.000e+00 7.064e-05 1.248e-18
7.555e-01 0.000e+00 0.000e+00 6.680e-05 -3.484e-17
9.443e-01 0.000e+00 0.000e+00 6.204e-05 -1.824e-16
1.133e+00 0.000e+00 0.000e+00 5.657e-05 -8.563e-17
1.322e+00 0.000e+00 0.000e+00 5.072e-05 -8.291e-17
1.511e+00 0.000e+00 0.000e+00 4.489e-05 -1.131e-16
1.700e+00 0.000e+00 0.000e+00 3.952e-05 -1.170e-17
1.889e+00 0.000e+00 0.000e+00 3.506e-05 -1.292e-16
2.078e+00 0.000e+00 0.000e+00 3.186e-05 -5.562e-17
2.266e+00 0.000e+00 0.000e+00 3.019e-05 -7.870e-17
2.455e+00 0.000e+00 0.000e+00 3.019e-05 -9.984e-17
2.644e+00 0.000e+00 0.000e+00 3.186e-05 -4.336e-17
2.833e+00 0.000e+00 0.000e+00 3.506e-05 -3.661e-17
3.022e+00 0.000e+00 0.000e+00 3.952e-05 -4.649e-17
3.211e+00 0.000e+00 0.000e+00 4.489e-05 -2.403e-17
3.400e+00 0.000e+00 0.000e+00 5.072e-05 -4.389e-18
3.589e+00 0.000e+00 0.000e+00 5.657e-05 -3.485e-17
3.777e+00 0.000e+00 0.000e+00 6.204e-05 7.438e-17
3.966e+00 0.000e+00 0.000e+00 6.680e-05 -1.853e-16
4.155e+00 0.000e+00 0.000e+00 7.064e-05 -9.956e-17
4.344e+00 0.000e+00 0.000e+00 7.342e-05 -1.820e-17
4.533e+00 0.000e+00 0.000e+00 7.510e-05 -5.038e-17
0.000e+00 1.889e-01 0.000e+00 7.566e-05 1.218e-18
1.889e-01 1.889e-01 0.000e+00 7.510e-05 -1.375e-16
3.777e-01 1.889e-01 0.000e+00 7.342e-05 -1.293e-16
5.666e-01 1.889e-01 0.000e+00 7.064e-05 1.248e-18
7.555e-01 1.889e-01 0.000e+00 6.680e-05 -3.484e-17
9.443e-01 1.889e-01 0.000e+00 6.204e-05 -1.824e-16
1.133e+00 1.889e-01 0.000e+00 5.657e-05 -8.563e-17
1.322e+00 1.889e-01 0.000e+00 5.072e-05 -8.291e-17
1.511e+00 1.889e-01 0.000e+00 4.489e-05 -1.131e-16
1.700e+00 1.889e-01 0.000e+00 3.952e-05 -1.170e-17
1.889e+00 1.889e-01 0.000e+00 3.506e-05 -1.292e-16
2.078e+00 1.889e-01 0.000e+00 3.186e-05 -5.562e-17
2.266e+00 1.889e-01 0.000e+00 3.019e-05 -7.870e-17
2.455e+00 1.889e-01 0.000e+00 3.019e-05 -9.984e-17
2.644e+00 1.889e-01 0.000e+00 3.186e-05 -4.336e-17
2.833e+00 1.889e-01 0.000e+00 3.506e-05 -3.661e-17
3.022e+00 1.889e-01 0.000e+00 3.952e-05 -4.649e-17
3.211e+00 1.889e-01 0.000e+00 4.489e-05 -2.403e-17
3.400e+00 1.889e-01 0.000e+00 5.072e-05 -4.389e-18
3.589e+00 1.889e-01 0.000e+00 5.657e-05 -3.485e-17
3.777e+00 1.889e-01 0.000e+00 6.204e-05 7.438e-17
3.966e+00 1.889e-01 0.000e+00 6.680e-05 -1.853e-16
4.155e+00 1.889e-01 0.000e+00 7.064e-05 -9.956e-17
4.344e+00 1.889e-01 0.000e+00 7.342e-05 -1.820e-17
4.533e+00 1.889e-01 0.000e+00 7.510e-05 -5.038e-17
0.000e+00 3.777e-01 0.000e+00 7.566e-05 1.218e-18
1.889e-01 3.777e-01 0.000e+00 7.510e-05 -1.375e-16
3.777e-01 3.777e-01 0.000e+00 7.342e-05 -1.293e-16
5.666e-01 3.777e-01 0.000e+00 7.064e-05 1.248e-18
7.555e-01 3.777e-01 0.000e+00 6.680e-05 -3.484e-17
9.443e-01 3.777e-01 0.000e+00 6.204e-05 -1.824e-16
1.133e+00 3.777e-01 0.000e+00 5.657e-05 -8.563e-17
1.322e+00 3.777e-01 0.000e+00 5.072e-05 -8.291e-17
1.511e+00 3.777e-01 0.000e+00 4.489e-05 -1.131e-16
1.700e+00 3.777e-01 0.000e+00 3.952e-05 -1.170e-17
1.889e+00 3.777e-01 0.000e+00 3.506e-05 -1.292e-16
2.078e+00 3.777e-01 0.000e+00 3.186e-05 -5.562e-17
2.266e+00 3.777e-01 0.000e+00 3.019e-05 -7.870e-17
2.455e+00 3.777e-01 0.000e+00 3.019e-05 -9.984e-17
2.644e+00 3.777e-01 0.000e+00 3.186e-05 -4.336e-17
2.833e+00 3.777e-01 0.000e+00 3.506e-05 -3.661e-17
3.022e+00 3.777e-01 0.000e+00 3.952e-05 -4.649e-17
3.211e+00 3.777e-01 0.000e+00 4.489e-05 -2.403e-17
3.400e+00 3.777e-01 0.000e+00 5.072e-05 -4.389e-18
3.589e+00 3.777e-01 0.000e+00 5.657e-05 -3.485e-17
3.777e+00 3.777e-01 0.000e+00 6.204e-05 7.438e-17
3.966e+00 3.777e-01 0.000e+00 6.680e-05 -1.853e-16
4.155e+00 3.777e-01 0.000e+00 7.064e-05 -9.956e-17
4.344e+00 3.777e-01 0.000e+00 7.342e-05 -1.820e-17
4.533e+00 3.777e-01 0.000e+00 7.510e-05 -5.038e-17
0.000e+00 5.666e-01 0.000e+00 7.566e-05 1.218e-18
1.889e-01 5.666e-01 0.000e+00 7.510e-05 -1.375e-16
3.777e-01 5.666e-01 0.000e+00 7.342e-05 -1.293e-16
5.666e-01 5.666e-01 0.000e+00 7.064e-05 1.248e-18
7.555e-01 5.666e-01 0.000e+00 6.680e-05 -3.484e-17
9.443e-01 5.666e-01 0.000e+00 6.204e-05 -1.824e-16
1.133e+00 5.666e-01 0.000e+00 5.657e-05 -8.563e-17
1.322e+00 5.666e-01 0.000e+00 5.072e-05 -8.291e-17
1.511e+00 5.666e-01 0.000e+00 4.489e-05 -1.131e-16
1.700e+00 5.666e-01 0.000e+00 3.952e-05 -1.170e-17
1.889e+00 5.666e-01 0.000e+00 3.506e-05 -1.292e-16
2.078e+00 5.666e-01 0.000e+00 3.186e-05 -5.562e-17
2.266e+00 5.666e-01 0.000e+00 3.019e-05 -7.870e-17
2.455e+00 5.666e-01 0.000e+00 3.019e-05 -9.984e-17
2.644e+00 5.666e-01 0.000e+00 3.186e-05 -4.336e-17
2.833e+00 5.666e-01 0.000e+00 3.506e-05 -3.661e-17
3.022e+00 5.666e-01 0.000e+00 3.952e-05 -4.649e-17
3.211e+00 5.666e-01 0.000e+00 4.489e-05 -2.403e-17
3.400e+00 5.666e-01 0.000e+00 5.072e-05 -4.389e-18
3.589e+00 5.666e-01 0.000e+00 5.657e-05 -3.485e-17
3.777e+00 5.666e-01 0.000e+00 6.204e-05 7.438e-17
3.966e+00 5.666e-01 0.000e+00 6.680e-05 -1.853e-16
4.155e+00 5.666e-01 0.000e+00 7.064e-05 -9.956e-17
4.344e+00 5.666e-01 0.000e+00 7.342e-05 -1.820e-17
4.533e+00 5.666e-01 0.000e+00 7.510e-05 -5.038e-17
0.000e+00 7.555e-01 0.000e+00 7.566e-05 1.218e-18
1.889e-01 7.555e-01 0.000e+00 7.510e-05 -1.375e-16
3.777e-01 7.555e-01 0.000e+00 7.342e-05 -1.293e-16
5.666e-01 7.555e-01 0.000e+00 7.064e-05 1.248e-18
7.555e-01 7.555e-01 0.000e+00 6.680e-05 -3.484e-17
9.443e-01 7.555e-01 0.000e+00 6.204e-05 -1.824e-16
1.133e+00 7.555e-01 0.000e+00 5.657e-05 -8.563e-17
1.322e+00 7.555e-01 0.000e+00 5.072e-05 -8.291e-17
1.511e+00 7.555e-01 0.000e+00 4.489e-05 -1.131e-16
1.700e+00 7.555e-01 0.000e+00 3.952e-05 -1.170e-17
1.889e+00 7.555e-01 0.000e+00 3.506e-05 -1.292e-16
2.078e+00 7.555e-01 0.000e+00 3.186e-05 -5.562e-17
2.266e+00 7.555e-01 0.000e+00 3.019e-05 -7.870e-17
2.455e+00 7.555e-01 0.000e+00 3.019e-05 -9.984e-17
2.644e+00 7.555e-01 0.000e+00 3.186e-05 -4.336e-17
2.833e+00 7.555e-01 0.000e+00 3.506e-05 -3.661e-17
3.022e+00 7.555e-01 0.000e+00 3.952e-05 -4.649e-17
3.211e+00 7.555e-01 0.000e+00 4.489e-05 -2.403e-17
3.400e+00 7.555e-01 0.000e+00 5.072e-05 -4.389e-18
3.589e+00 7.555e-01 0.000e+00 5.657e-05 -3.485e-17
3.777e+00 7.555e-01 0.000e+00 6.204e-05 7.438e-17
3.966e+00 7.555e-01 0.000e+00 6.680e-05 -1.853e-16
4.155e+00 7.555e-01 0.000e+00 7.064e-05 -9.956e-17
4.344e+00 7.555e-01 0.000e+00 7.342e-05 -1.820e-17
4.533e+00 7.555e-01 0.000e+00 7.510e-05 -5.038e-17
0.000e+00 9.443e-01 0.000e+00 7.566e-05 1.218e-18
1.889e-01 9.443e-01 0.000e+00 7.510e-05 -1.375e-16
3.777e-01 9.443e-01 0.000e+00 7.342e-05 -1.293e-16
5.666e-01 9.443e-01 0.000e+00 7.064e-05 1.248e-18
7.555e-01 9.443e-01 0.000e+00 6.680e-05 -3.484e-17
9.443e-01 9.443e-01 0.000e+00 6.204e-05 -1.824e-16
1.133e+00 9.443e-01 0.000e+00 5.657e-05 -8.563e-17
1.322e+00 9.443e-01 0.000e+00 5.072e-05 -8.291e-17
1.511e+00 9.443e-01 0.000e+00 4.489e-05 -1.131e-16
1.700e+00 9.443e-01 0.000e+00 3.952e-05 -1.170e-17
1.889e+00 9.443e-01 0.000e+00 3.506e-05 -1.292e-16
2.078e+00 9.443e-01 0.000e+00 3.186e-05 -5.562e-17
2.266e+00 9.443e-01 0.000e+00 3.019e-05 -7.870e-17
2.455e+00 9.443e-01 0.000e+00 3.019e-05 -9.984e-17
2.644e+00 9.443e-01 0.000e+00 3.186e-05 -4.336e-17
2.833e+00 9.443e-01 0.000e+00 3.506e-05 -3.661e-17
3.022e+00 9.443e-01 0.000e+00 3.952e-05 -4.649e-17
3.211e+00 9.443e-01 0.000e+00 4.489e-05 -2.403e-17
3.400e+00 9.443e-01 0.000e+00 5.072e-05 -4.389e-18
3.589e+00 9.443e-01 0.000e+00 5.657e-05 -3.485e-17
3.777e+00 9.443e-01 0.000e+00 6.204e-05 7.438e-17
3.966e+00 9.443e-01 0.000e+00 6.680e-05 -1.853e-16
4.155e+00 9.443e-01 0.000e+00 7.064e-05 -9.956e-17
4.344e+00 9.443e-01 0.000e+00 7.342e-05 -1.820e-17
4.533e+00 9.443e-01 0.000e+00 7.510e-05 -5.038e-17
0.000e+00 1.133e+00 0.000e+00 7.566e-05 1.218e-18
1.889e-01 1.133e+00 0.000e+00 7.510e-05 -1.375e-16
3.777e-01 1.133e+00 0.000e+00 7.342e-05 -1.293e-16
5.666e-01 1.133e+00 0.000e+00 7.064e-05 1.248e-18
7.555e-01 1.133e+00 0.000e+00 6.680e-05 -3.484e-17
9.443e-01 1.133e+00 0.000e+00 6.204e-05 -1.824e-16
1.133e+00 1.133e+00 0.000e+00 5.657e-05 -8.563e-17
1.322e+00 1.133e+00 0.000e+00 5.072e-05 -8.291e-17
1.511e+00 1.133e+00 0.000e+00 4.489e-05 -1.131e-16
1.700e+00 1.133e+00 0.000e+00 3.952e-05 -1.170e-17
1.889e+00 1.133e+00 0.000e+00 3.506e-05 -1.292e-16
2.078e+00 1.133e+00 0.000e+00 3.186e-05 -5.562e-17
2.266e+00 1.133e+00 0.000e+00 3.019e-05 -7.870e-17
2.455e+00 1.133e+00 0.000e+00 3.019e-05 -9.984e-17
2.644e+00 1.133e+00 0.000e+00 3.186e-05 -4.336e-17
2.833e+00 1.133e+00 0.000e+00 3.506e-05 -3.661e-17
3.022e+00 1.133e+00 0.000e+00 3.952e-05 -4.649e-17
3.211e+00 1.133e+00 0.000e+00 4.489e-05 -2.403e-17
3.400e+00 1.133e+00 0.000e+00 5.072e-05 -4.389e-18
3.589e+00 1.133e+00 0.000e+00 5.657e-05 -3.485e-17
3.777e+00 1.133e+00 0.000e+00 6.204e-05 7.438e-17
3.966e+00 1.133e+00 0.000e+00 6.680e-05 -1.853e-16
4.155e+00 1.133e+00 0.000e+00 7.064e-05 -9.956e-17
4.344e+00 1.133e+00 0.000e+00 7.342e-05 -1.820e-17
4.533e+00 1.133e+00 0.000e+00 7.510e-05 -5.038e-17
0.000e+00 1.322e+00 0.000e+00 7.566e-05 1.218e-18
1.889e-01 1.322e+00 0.000e+00 7.510e-05 -1.375e-16
3.777e-01 1.322e+00 0.000e+00 7.342e-05 -1.293e-16
5.666e-01 1.322e+00 0.000e+00 7.064e-05 1.248e-18
7.555e-01 1.322e+00 0.000e+00 6.680e-05 -3.484e-17
9.443e-01 1.322e+00 0.000e+00 6.204e-05 -1.824e-16
1.133e+00 1.322e+00 0.000e+00 5.657e-05 -8.563e-17
1.322e+00 1.322e+00 0.000e+00 5.072e-05 -8.291e-17
1.511e+00 1.322e+00 0.000e+00 4.489e-05 -1.131e-16
1.700e+00 1.322e+00 0.000e+00 3.952e-05 -1.170e-17
1.889e+00 1.322e+00 0.000e+00 3.506e-05 -1.292e-16
2.078e+00 1.322e+00 0.000e+00 3.186e-05 -5.562e-17
2.266e+00 1.322e+00 0.000e+00 3.019e-05 -7.870e-17
2.455e+00 1.322e+00 0.000e+00 3.019e-05 -9.984e-17
2.644e+00 1.322e+00 0.000e+00 3.186e-05 -4.336e-17
2.833e+00 1.322e+00 0.000e+00 3.506e-05 -3.661e-17
3.022e+00 1.322e+00 0.000e+00 3.952e-05 -4.649e-17
3.211e+00 1.322e+00 0.000e+00 4.489e-05 -2.403e-17
3.400e+00 1.322e+00 0.000e+00 5.072e-05 -4.389e-18
3.589e+00 1.322e+00 0.000e+00 5.657e-05 -3.485e-17
3.777e+00 1.322e+00 0.000e+00 6.204e-05 7.438e-17
3.966e+00 1.322e+00 0.000e+00 6.680e-05 -1.853e-16
4.155e+00 1.322e+00 0.000e+00 7.064e-05 -9.956e-17
4.344e+00 1.322e+00 0.000e+00 7.342e-05 -1.820e-17
4.533e+00 1.322e+00 0.000e+00 7.510e-05 -5.038e-17
0.000e+00 1.511e+00 0.000e+00 7.566e-05 1.218e-18
1.889e-01 1.511e+00 0.000e+00 7.510e-05 -1.375e-16
3.777e-01 1.511e+00 0.000e+00 7.342e-05 -1.293e-16
5.666e-01 1.511e+00 0.000e+00 7.064e-05 1.248e-18
7.555e-01 1.511e+00 0.000e+00 6.680e-05 -3.484e-17
9.443e-01 1.511e+00 0.000e+00 6.204e-05 -1.824e-16
1.133e+00 1.511e+00 0.000e+00 5.657e-05 -8.563e-17
1.322e+00 1.511e+00 0.000e+00 5.072e-05 -8.291e-17
1.511e+00 1.511e+00 0.000e+00 4.489e-05 -1.131e-16
1.700e+00 1.511e+00 0.000e+00 3.952e-05 -1.170e-17
1.889e+00 1.511e+00 0.000e+00 3.506e-05 -1.292e-16
2.078e+00 1.511e+00 0.000e+00 3.186e-05 -5.562e-17
2.266e+00 1.511e+00 0.000e+00 3.019e-05 -7.870e-17
2.455e+00 1.511e+00 0.000e+00 3.019e-05 -9.984e-17
2.644e+00 1.511e+00 0.000e+00 3.186e-05 -4.336e-17
2.833e+00 1.511e+00 0.000e+00 3.506e-05 -3.661e-17
3.022e+00 1.511e+00 0.000e+00 3.952e-05 -4.649e-17
3.211e+00 1.511e+00 0.000e+00 4.489e-05 -2.403e-17
3.400e+00 1.511e+00 0.000e+00 5.072e-05 -4.389e-18
3.589e+00 1.511e+00 0.000e+00 5.657e-05 -3.485e-17
3.777e+00 1.511e+00 0.000e+00 6.204e-05 7.438e-17
3.966e+00 1.511e+00 0.000e+00 6.680e-05 -1.853e-16
4.155e+00 1.511e+00 0.000e+00 7.064e-05 -9.956e-17
4.344e+00 1.511e+00 0.000e+00 7.342e-05 -1.820e-17
4.533e+00 1.511e+00 0.000e+00 7.510e-05 -5.038e-17
0.000e+00 1.700e+00 0.000e+00 7.566e-05 1.218e-18
1.889e-01 1.700e+00 0.000e+00 7.510e-05 -1.375e-16
3.777e-01 1.700e+00 0.000e+00 7.342e-05 -1.293e-16
5.666e-01 1.700e+00 0.000e+00 7.064e-05 1.248e-18
7.555e-01 1.700e+00 0.000e+00 6.680e-05 -3.484e-17
9.443e-01 1.700e+00 0.000e+00 6.204e-05 -1.824e-16
1.133e+00 1.700e+00 0.000e+00 5.657e-05 -8.563e-17
1.322e+00 1.700e+00 0.000e+00 5.072e-05 -8.291e-17
1.511e+00 1.700e+00 0.000e+00 4.489e-05 -1.131e-16
1.700e+00 1.700e+00 0.000e+00 3.952e-05 -1.170e-17
1.889e+00 1.700e+00 0.000e+00 3.506e-05 -1.292e-16
2.078e+00 1.700e+00 0.000e+00 3.186e-05 -5.562e-17
2.266e+00 1.700e+00 0.000e+00 3.019e-05 -7.870e-17
2.455e+00 1.700e+00 0.000e+00 3.019e-05 -9.984e-17
2.644e+00 1.700e+00 0.000e+00 3.186e-05 -4.336e-17
2.833e+00 1.700e+00 0.000e+00 3.506e-05 -3.661e-17
3.022e+00 1.700e+00 0.000e+00 3.952e-05 -4.649e-17
3.211e+00 1.700e+00 0.000e+00 4.489e-05 -2.403e-17
3.400e+00 1.700e+00 0.000e+00 5.072e-05 -4.389e-18
3.589e+00 1.700e+00 0.000e+00 5.657e-05 -3.485e-17
3.777e+00 1.700e+00 0.000e+00 6.204e-05 7.438e-17
3.966e+00 1.700e+00 0.000e+00 6.680e-05 -1.853e-16
4.155e+00 1.700e+00 0.000e+00 7.064e-05 -9.956e-17
4.344e+00 1.700e+00 0.000e+00 7.342e-05 -1.820e-17
4.533e+00 1.700e+00 0.000e+00 7.510e-05 -5.038e-17
0.000e+00 1.889e+00 0.000e+00 7.566e-05 1.218e-18
1.889e-01 1.889e+00 0.000e+00 7.510e-05 -1.375e-16
3.777e-01 1.889e+00 0.000e+00 7.342e-05 -1.293e-16
5.666e-01 1.889e+00 0.000e+00 7.064e-05 1.248e-18
7.555e-01 1.889e+00 0.000e+00 6.680e-05 -3.484e-17
9.443e-01 1.889e+00 0.000e+00 6.204e-05 -1.824e-16
1.133e+00 1.889e+00 0.000e+00 5.657e-05 -8.563e-17
1.322e+00 1.889e+00 0.000e+00 5.072e-05 -8.291e-17
1.511e+00 1.889e+00 0.000e+00 4.489e-05 -1.131e-16
1.700e+00 1.889e+00 0.000e+00 3.952e-05 -1.170e-17
1.889e+00 1.889e+00 0.000e+00 3.506e-05 -1.292e-16
2.078e+00 1.889e+00 0.000e+00 3.186e-05 -5.562e-17
2.266e+00 1.889e+00 0.000e+00 3.019e-05 -7.870e-17
2.455e+00 1.889e+00 0.000e+00 3.019e-05 -9.984e-17
2.644e+00 1.889e+00 0.000e+00 3.186e-05 -4.336e-17
2.833e+00 1.889e+00 0.000e+00 3.506e-05 -3.661e-17
3.022e+00 1.889e+00 0.000e+00 3.952e-05 -4.649e-17
3.211e+00 1.889e+00 0.000e+00 4.489e-05 -2.403e-17
3.400e+00 1.889e+00 0.000e+00 5.072e-05 -4.389e-18
3.589e+00 1.889e+00 0.000e+00 5.657e-05 -3.485e-17
3.777e+00 1.889e+00 0.000e+00 6.204e-05 7.438e-17
3.966e+00 1.889e+00 0.000e+00 6.680e-05 -1.853e-16
4.155e+00 1.889e+00 0.000e+00 7.064e-05 -9.956e-17
4.344e+00 1.889e+00 0.000e+00 7.342e-05 -1.820e-17
4.533e+00 1.889e+00 0.000e+00 7.510e-05 -5.038e-17
0.000e+00 2.078e+00 0.000e+00 7.566e-05 1.218e-18
1.889e-01 2.078e+00 0.000e+00 7.510e-05 -1.375e-16
3.777e-01 2.078e+00 0.000e+00 7.342e-05 -1.293e-16
5.666e-01 2.078e+00 0.000e+00 7.064e-05 1.248e-18
7.555e-01 2.078e+00 0.000e+00 6.680e-05 -3.484e-17
9.443e-01 2.078e+00 0.000e+00 6.204e-05 -1.824e-16
1.133e+00 2.078e+00 0.000e+00 5.657e-05 -8.563e-17
1.322e+00 2.078e+00 0.000e+00 5.072e-05 -8.291e-17
1.511e+00 2.078e+00 0.000e+00 4.489e-05 -1.131e-16
1.700e+00 2.078e+00 0.000e+00 3.952e-05 -1.170e-17
1.889e+00 2.078e+00 0.000e+00 3.506e-05 -1.292e-16
2.078e+00 2.078e+00 0.000e+00 3.186e-05 -5.562e-17
2.266e+00 2.078e+00 0.000e+00 3.019e-05 -7.870e-17
2.455e+00 2.078e+00 0.000e+00 3.019e-05 -9.984e-17
2.644e+00 2.078e+00 0.000e+00 3.186e-05 -4.336e-17
2.833e+00 2.078e+00 0.000e+00 3.506e-05 -3.661e-17
3.022e+00 2.078e+00 0.000e+00 3.952e-05 -4.649e-17
3.211e+00 2.078e+00 0.000e+00 4.489e-05 -2.403e-17
3.400e+00 2.078e+00 0.000e+00 5.072e-05 -4.389e-18
3.589e+00 2.078e+00 0.000e+00 5.657e-05 -3.485e-17
3.777e+00 2.078e+00 0.000e+00 6.204e-05 7.438e-17
3.966e+00 2.078e+00 0.000e+00 6.680e-05 -1.853e-16
4.155e+00 2.078e+00 0.000e+00 7.064e-05 -9.956e-17
4.344e+00 2.078e+00 0.000e+00 7.342e-05 -1.820e-17
4.533e+00 2.078e+00 0.000e+00 7.510e-05 -5.038e-17
0.000e+00 2.266e+00 0.000e+00 7.566e-05 1.218e-18
1.889e-01 2.266e+00 0.000e+00 7.510e-05 -1.375e-16
3.777e-01 2.266e+00 0.000e+00 7.342e-05 -1.293e-16
5.666e-01 2.266e+00 0.000e+00 7.064e-05 1.248e-18
7.555e-01 2.266e+00 0.000e+00 6.680e-05 -3.484e-17
9.443e-01 2.266e+00 0.000e+00 6.204e-05 -1.824e-16
1.133e+00 2.266e+00 0.000e+00 5.657e-05 -8.563e-17
1.322e+00 2.266e+00 0.000e+00 5.072e-05 -8.291e-17
1.511e+00 2.266e+00 0.000e+00 4.489e-05 -1.131e-16
1.700e+00 2.266e+00 0.000e+00 3.952e-05 -1.170e-17
1.889e+00 2.266e+00 0.000e+00 3.506e-05 -1.292e-16
2.078e+00 2.266e+00 0.000e+00 3.186e-05 -5.562e-17
2.266e+00 2.266e+00 0.000e+00 3.019e-05 -7.870e-17
2.455e+00 2.266e+00 0.000e+00 3.019e-05 -9.984e-17
2.644e+00 2.266e+00 0.000e+00 3.186e-05 -4.336e-17
2.833e+00 2.266e+00 0.000e+00 3.506e-05 -3.661e-17
3.022e+00 2.266e+00 0.000e+00 3.952e-05 -4.649e-17
3.211e+00 2.266e+00 0.000e+00 4.489e-05 -2.403e-17
3.400e+00 2.266e+00 0.000e+00 5.072e-05 -4.389e-18
3.589e+00 2.266e+00 0.000e+00 5.657e-05 -3.485e-17
3.777e+00 2.266e+00 0.000e+00 6.204e-05 7.438e-17
3.966e+00 2.266e+00 0.000e+00 6.680e-05 -1.853e-16
4.155e+00 2.266e+00 0.000e+00 7.064e-05 -9.956e-17
4.344e+00 2.266e+00 0.000e+00 7.342e-05 -1.820e-17
4.533e+00 2.266e+00 0.000e+00 7.510e-05 -5.038e-17
0.000e+00 2.455e+00 0.000e+00 7.566e-05 1.218e-18
1.889e-01 2.455e+00 0.000e+00 7.510e-05 -1.375e-16
3.777e-01 2.455e+00 0.000e+00 7.342e-05 -1.293e-16
5.666e-01 2.455e+00 0.000e+00 7.064e-05 1.248e-18
7.555e-01 2.455e+00 0.000e+00 6.680e-05 -3.484e-17
9.443e-01 2.455e+00 0.000e+00 6.204e-05 -1.824e-16
1.133e+00 2.455e+00 0.000e+00 5.657e-05 -8.563e-17
1.322e+00 2.455e+00 0.000e+00 5.072e-05 -8.291e-17
1.511e+00 2.455e+00 0.000e+00 4.489e-05 -1.131e-16
1.700e+00 2.455e+00 0.000e+00 3.952e-05 -1.170e-17
1.889e+00 2.455e+00 0.000e+00 3.506e-05 -1.292e-16
2.078e+00 2.455e+00 0.000e+00 3.186e-05 -5.562e-17
2.266e+00 2.455e+00 0.000e+00 3.019e-05 -7.870e-17
2.455e+00 2.455e+00 0.000e+00 3.019e-05 -9.984e-17
2.644e+00 2.455e+00 0.000e+00 3.186e-05 -4.336e-17
2.833e+00 2.455e+00 0.000e+00 3.506e-05 -3.661e-17
3.022e+00 2.455e+00 0.000e+00 3.952e-05 -4.649e-17
3.211e+00 2.455e+00 0.000e+00 4.489e-05 -2.403e-17
3.400e+00 2.455e+00 0.000e+00 5.072e-05 -4.389e-18
3.589e+00 2.455e+00 0.000e+00 5.657e-05 -3.485e-17
3.777e+00 2.455e+00 0.000e+00 6.204e-05 7.438e-17
3.966e+00 2.455e+00 0.000e+00 6.680e-05 -1.853e-16
4.155e+00 2.455e+00 0.000e+00 7.064e-05 -9.956e-17
4.344e+00 2.455e+00 0.000e+00 7.342e-05 -1.820e-17
4.533e+00 2.455e+00 0.000e+00 7.510e-05 -5.038e-17
0.000e+00 2.644e+00 0.000e+00 7.566e-05 1.218e-18
1.889e-01 2.644e+00 0.000e+00 7.510e-05 -1.375e-16
3.777e-01 2.644e+00 0.000e+00 7.342e-05 -1.293e-16
5.666e-01 2.644e+00 0.000e+00 7.064e-05 1.248e-18
7.555e-01 2.644e+00 0.000e+00 6.680e-05 -3.484e-17
9.443e-01 2.644e+00 0.000e+00 6.204e-05 -1.824e-16
1.133e+00 2.644e+00 0.000e+00 5.657e-05 -8.563e-17
1.322e+00 2.644e+00 0.000e+00 5.072e-05 -8.291e-17
1.511e+00 2.644e+00 0.000e+00 4.489e-05 -1.131e-16
1.700e+00 2.644e+00 0.000e+00 3.952e-05 -1.170e-17
1.889e+00 2.644e+00 0.000e+00 3.506e-05 -1.292e-16
2.078e+00 2.644e+00 0.000e+00 3.186e-05 -5.562e-17
2.266e+00 2.644e+00 0.000e+00 3.019e-05 -7.870e-17
2.455e+00 2.644e+00 0.000e+00 3.019e-05 -9.984e-17
2.644e+00 2.644e+00 0.000e+00 3.186e-05 -4.336e-17
2.833e+00 2.644e+00 0.000e+00 3.506e-05 -3.661e-17
3.022e+00 2.644e+00 0.000e+00 3.952e-05 -4.649e-17
3.211e+00 2.644e+00 0.000e+00 4.489e-05 -2.403e-17
3.400e+00 2.644e+00 0.000e+00 5.072e-05 -4.389e-18
3.589e+00 2.644e+00 0.000e+00 5.657e-05 -3.485e-17
3.777e+00 2.644e+00 0.000e+00 6.204e-05 7.438e-17
3.966e+00 2.644e+00 0.000e+00 6.680e-05 -1.853e-16
4.155e+00 2.644e+00 0.000e+00 7.064e-05 -9.956e-17
4.344e+00 2.644e+00 0.000e+00 7.342e-05 -1.820e-17
4.533e+00 2.644e+00 0.000e+00 7.510e-05 -5.038e-17
0.000e+00 2.833e+00 0.000e+00 7.566e-05 1.218e-18
1.889e-01 2.833e+00 0.000e+00 7.510e-05 -1.375e-16
3.777e-01 2.833e+00 0.000e+00 7.342e-05 -1.293e-16
5.666e-01 2.833e+00 0.000e+00 7.064e-05 1.248e-18
7.555e-01 2.833e+00 0.000e+00 6.680e-05 -3.484e-17
9.443e-01 2.833e+00 0.000e+00 6.204e-05 -1.824e-16
1.133e+00 2.833e+00 0.000e+00 5.657e-05 -8.563e-17
1.322e+00 2.833e+00 0.000e+00 5.072e-05 -8.291e-17
1.511e+00 2.833e+00 0.000e+00 4.489e-05 -1.131e-16
1.700e+00 2.833e+00 0.000e+00 3.952e-05 -1.170e-17
1.889e+00 2.833e+00 0.000e+00 3.506e-05 -1.292e-16
2.078e+00 2.833e+00 0.000e+00 3.186e-05 -5.562e-17
2.266e+00 2.833e+00 0.000e+00 3.019e-05 -7.870e-17
2.455e+00 2.833e+00 0.000e+00 3.019e-05 -9.984e-17
2.644e+00 2.833e+00 0.000e+00 3.186e-05 -4.336e-17
2.833e+00 2.833e+00 0.000e+00 3.506e-05 -3.661e-17
3.022e+00 2.833e+00 0.000e+00 3.952e-05 -4.649e-17
3.211e+00 2.833e+00 0.000e+00 4.489e-05 -2.403e-17
3.400e+00 2.833e+00 0.000e+00 5.072e-05 -4.389e-18
3.589e+00 2.833e+00 0.000e+00 5.657e-05 -3.485e-17
3.777e+00 2.833e+00 0.000e+00 6.204e-05 7.438e-17
3.966e+00 2.833e+00 0.000e+00 6.680e-05 -1.853e-16
4.155e+00 2.833e+00 0.000e+00 7.064e-05 -9.956e-17
4.344e+00 2.833e+00 0.000e+00 7.342e-05 -1.820e-17
4.533e+00 2.833e+00 0.000e+00 7.510e-05 -5.038e-17
0.000e+00 3.022e+00 0.000e+00 7.566e-05 1.218e-18
1.889e-01 3.022e+00 0.000e+00 7.510e-05 -1.375e-16
3.777e-01 3.022e+00 0.000e+00 7.342e-05 -1.293e-16
5.666e-01 3.022e+00 0.000e+00 7.064e-05 1.248e-18
7.555e-01 3.022e+00 0.000e+00 6.680e-05 -3.484e-17
9.443e-01 3.022e+00 0.000e+00 6.204e-05 -1.824e-16
1.133e+00 3.022e+00 0.000e+00 5.657e-05 -8.563e-17
1.322e+00 3.022e+00 0.000e+00 5.072e-05 -8.291e-17
1.511e+00 3.022e+00 0.000e+00 4.489e-05 -1.131e-16
1.700e+00 3.022e+00 0.000e+00 3.952e-05 -1.170e-17
1.889e+00 3.022e+00 0.000e+00 3.506e-05 -1.292e-16
2.078e+00 3.022e+00 0.000e+00 3.186e-05 -5.562e-17
2.266e+00 3.022e+00 0.000e+00 3.019e-05 -7.870e-17
2.455e+00 3.022e+00 0.000e+00 3.019e-05 -9.984e-17
2.644e+00 3.022e+00 0.000e+00 3.186e-05 -4.336e-17
2.833e+00 3.022e+00 0.000e+00 3.506e-05 -3.661e-17
3.022e+00 3.022e+00 0.000e+00 3.952e-05 -4.649e-17
3.211e+00 3.022e+00 0.000e+00 4.489e-05 -2.403e-17
3.400e+00 3.022e+00 0.000e+00 5.072e-05 -4.389e-18
3.589e+00 3.022e+00 0.000e+00 5.657e-05 -3.485e-17
3.777e+00 3.022e+00 0.000e+00 6.204e-05 7.438e-17
3.966e+00 3.022e+00 0.000e+00 6.680e-05 -1.853e-16
4.155e+00 3.022e+00 0.000e+00 7.064e-05 -9.956e-17
4.344e+00 3.022e+00 0.000e+00 7.342e-05 -1.820e-17
4.533e+00 3.022e+00 0.000e+00 7.510e-05 -5.038e-17
0.000e+00 3.211e+00 0.000e+00 7.566e-05 1.218e-18
1.889e-01 3.211e+00 0.000e+00 7.510e-05 -1.375e-16
3.777e-01 3.211e+00 0.000e+00 7.342e-05 -1.293e-16
5.666e-01 3.211e+00 0.000e+00 7.064e-05 1.248e-18
7.555e-01 3.211e+00 0.000e+00 6.680e-05 -3.484e-17
9.443e-01 3.211e+00 0.000e+00 6.204e-05 -1.824e-16
1.133e+00 3.211e+00 0.000e+00 5.657e-05 -8.563e-17
1.322e+00 3.211e+00 0.000e+00 5.072e-05 -8.291e-17
1.511e+00 3.211e+00 0.000e+00 4.489e-05 -1.131e-16
1.700e+00 3.211e+00 0.000e+00 3.952e-05 -1.170e-17
1.889e+00 3.211e+00 0.000e+00 3.506e-05 -1.292e-16
2.078e+00 3.211e+00 0.000e+00 3.186e-05 -5.562e-17
2.266e+00 3.211e+00 0.000e+00 3.019e-05 -7.870e-17
2.455e+00 3.211e+00 0.000e+00 3.019e-05 -9.984e-17
2.644e+00 3.211e+00 0.000e+00 3.186e-05 -4.336e-17
2.833e+00 3.211e+00 0.000e+00 3.506e-05 -3.661e-17
3.022e+00 3.211e+00 0.000e+00 3.952e-05 -4.649e-17
3.211e+00 3.211e+00 0.000e+00 4.489e-05 -2.403e-17
3.400e+00 3.211e+00 0.000e+00 5.072e-05 -4.389e-18
3.589e+00 3.211e+00 0.000e+00 5.657e-05 -3.485e-17
3.777e+00 3.211e+00 0.000e+00 6.204e-05 7.438e-17
3.966e+00 3.211e+00 0.000e+00 6.680e-05 -1.853e-16
4.155e+00 3.211e+00 0.000e+00 7.064e-05 -9.956e-17
4.344e+00 3.211e+00 0.000e+00 7.342e-05 -1.820e-17
4.533e+00 3.211e+00 0.000e+00 7.510e-05 -5.038e-17
0.000e+00 3.400e+00 0.000e+00 7.566e-05 1.218e-18
1.889e-01 3.400e+00 0.000e+00 7.510e-05 -1.375e-16
3.777e-01 3.400e+00 0.000e+00 7.342e-05 -1.293e-16
5.666e-01 3.400e+00 0.000e+00 7.064e-05 1.248e-18
7.555e-01 3.400e+00 0.000e+00 6.680e-05 -3.484e-17
9.443e-01 3.400e+00 0.000e+00 6.204e-05 -1.824e-16
1.133e+00 3.400e+00 0.000e+00 5.657e-05 -8.563e-17
1.322e+00 3.400e+00 0.000e+00 5.072e-05 -8.291e-17
1.511e+00 3.400e+00 0.000e+00 4.489e-05 -1.131e-16
1.700e+00 3.400e+00 0.000e+00 3.952e-05 -1.170e-17
1.889e+00 3.400e+00 0.000e+00 3.506e-05 -1.292e-16
2.078e+00 3.400e+00 0.000e+00 3.186e-05 -5.562e-17
2.266e+00 3.400e+00 0.000e+00 3.019e-05 -7.870e-17
2.455e+00 3.400e+00 0.000e+00 3.019e-05 -9.984e-17
2.644e+00 3.400e+00 0.000e+00 3.186e-05 -4.336e-17
2.833e+00 3.400e+00 0.000e+00 3.506e-05 -3.661e-17
3.022e+00 3.400e+00 0.000e+00 3.952e-05 -4.649e-17
3.211e+00 3.400e+00 0.000e+00 4.489e-05 -2.403e-17
3.400e+00 3.400e+00 0.000e+00 5.072e-05 -4.389e-18
3.589e+00 3.400e+00 0.000e+00 5.657e-05 -3.485e-17
3.777e+00 3.400e+00 0.000e+00 6.204e-05 7.438e-17
3.966e+00 3.400e+00 0.000e+00 6.680e-05 -1.853e-16
4.155e+00 3.400e+00 0.000e+00 7.064e-05 -9.956e-17
4.344e+00 3.400e+00 0.000e+00 7.342e-05 -1.820e-17
4.533e+00 3.400e+00 0.000e+00 7.510e-05 -5.038e-17
0.000e+00 3.589e+00 0.000e+00 7.566e-05 1.218e-18
1.889e-01 3.589e+00 0.000e+00 7.510e-05 -1.375e-16
3.777e-01 3.589e+00 0.000e+00 7.342e-05 -1.293e-16
5.666e-01 3.589e+00 0.000e+00 7.064e-05 1.248e-18
7.555e-01 3.589e+00 0.000e+00 6.680e-05 -3.484e-17
9.443e-01 3.589e+00 0.000e+00 6.204e-05 -1.824e-16
1.133e+00 3.589e+00 0.000e+00 5.657e-05 -8.563e-17
1.322e+00 3.589e+00 0.000e+00 5.072e-05 -8.291e-17
1.511e+00 3.589e+00 0.000e+00 4.489e-05 -1.131e-16
1.700e+00 3.589e+00 0.000e+00 3.952e-05 -1.170e-17
1.889e+00 3.589e+00 0.000e+00 3.506e-05 -1.292e-16
2.078e+00 3.589e+00 0.000e+00 3.186e-05 -5.562e-17
2.266e+00 3.589e+00 0.000e+00 3.019e-05 -7.870e-17
2.455e+00 3.589e+00 0.000e+00 3.019e-05 -9.984e-17
2.644e+00 3.589e+00 0.000e+00 3.186e-05 -4.336e-17
2.833e+00 3.589e+00 0.000e+00 3.506e-05 -3.661e-17
3.022e+00 3.589e+00 0.000e+00 3.952e-05 -4.649e-17
3.211e+00 3.589e+00 0.000e+00 4.489e-05 -2.403e-17
3.400e+00 3.589e+00 0.000e+00 5.072e-05 -4.389e-18
3.589e+00 3.589e+00 0.000e+00 5.657e-05 -3.485e-17
3.777e+00 3.589e+00 0.000e+00 6.204e-05 7.438e-17
3.966e+00 3.589e+00 0.000e+00 6.680e-05 -1.853e-16
4.155e+00 3.589e+00 0.000e+00 7.064e-05 -9.956e-17
4.344e+00 3.589e+00 0.000e+00 7.342e-05 -1.820e-17
4.533e+00 3.589e+00 0.000e+00 7.510e-05 -5.038e-17
0.000e+00 3.777e+00 0.000e+00 7.566e-05 1.218e-18
1.889e-01 3.777e+00 0.000e+00 7.510e-05 -1.375e-16
3.777e-01 3.777e+00 0.000e+00 7.342e-05 -1.293e-16
5.666e-01 3.777e+00 0.000e+00 7.064e-05 1.248e-18
7.555e-01 3.777e+00 0.000e+00 6.680e-05 -3.484e-17
9.443e-01 3.777e+00 0.000e+00 6.204e-05 -1.824e-16
1.133e+00 3.777e+00 0.000e+00 5.657e-05 -8.563e-17
1.322e+00 3.777e+00 0.000e+00 5.072e-05 -8.291e-17
1.511e+00 3.777e+00 0.000e+00 4.489e-05 -1.131e-16
1.700e+00 3.777e+00 0.000e+00 3.952e-05 -1.170e-17
1.889e+00 3.777e+00 0.000e+00 3.506e-05 -1.292e-16
2.078e+00 3.777e+00 0.000e+00 3.186e-05 -5.562e-17
2.266e+00 3.777e+00 0.000e+00 3.019e-05 -7.870e-17
2.455e+00 3.777e+00 0.000e+00 3.019e-05 -9.984e-17
2.644e+00 3.777e+00 0.000e+00 3.186e-05 -4.336e-17
2.833e+00 3.777e+00 0.000e+00 3.506e-05 -3.661e-17
3.022e+00 3.777e+00 0.000e+00 3.952e-05 -4.649e-17
3.211e+00 3.777e+00 0.000e+00 4.489e-05 -2.403e-17
3.400e+00 3.777e+00 0.000e+00 5.072e-05 -4.389e-18
3.589e+00 3.777e+00 0.000e+00 5.657e-05 -3.485e-17
3.777e+00 3.777e+00 0.000e+00 6.204e-05 7.438e-17
3.966e+00 3.777e+00 0.000e+00 6.680e-05 -1.853e-16
4.155e+00 3.777e+00 0.000e+00 7.064e-05 -9.956e-17
4.344e+00 3.777e+00 0.000e+00 7.342e-05 -1.820e-17
4.533e+00 3.777e+00 0.000e+00 7.510e-05 -5.038e-17
0.000e+00 3.966e+00 0.000e+00 7.566e-05 1.218e-18
1.889e-01 3.966e+00 0.000e+00 7.510e-05 -1.375e-16
3.777e-01 3.966e+00 0.000e+00 7.342e-05 -1.293e-16
5.666e-01 3.966e+00 0.000e+00 7.064e-05 1.248e-18
7.555e-01 3.966e+00 0.000e+00 6.680e-05 -3.484e-17
9.443e-01 3.966e+00 0.000e+00 6.204e-05 -1.824e-16
1.133e+00 3.966e+00 0.000e+00 5.657e-05 -8.563e-17
1.322e+00 3.966e+00 0.000e+00 5.072e-05 -8.291e-17
1.511e+00 3.966e+00 0.000e+00 4.489e-05 -1.131e-16
1.700e+00 3.966e+00 0.000e+00 3.952e-05 -1.170e-17
1.889e+00 3.966e+00 0.000e+00 3.506e-05 -1.292e-16
2.078e+00 3.966e+00 0.000e+00 3.186e-05 -5.562e-17
2.266e+00 3.966e+00 0.000e+00 3.019e-05 -7.870e-17
2.455e+00 3.966e+00 0.000e+00 3.019e-05 -9.984e-17
2.644e+00 3.966e+00 0.000e+00 3.186e-05 -4.336e-17
2.833e+00 3.966e+00 0.000e+00 3.506e-05 -3.661e-17
3.022e+00 3.966e+00 0.000e+00 3.952e-05 -4.649e-17
3.211e+00 3.966e+00 0.000e+00 4.489e-05 -2.403e-17
3.400e+00 3.966e+00 0.000e+00 5.072e-05 -4.389e-18
3.589e+00 3.966e+00 0.000e+00 5.657e-05 -3.485e-17
3.777e+00 3.966e+00 0.000e+00 6.204e-05 7.438e-17
3.966e+00 3.966e+00 0.000e+00 6.680e-05 -1.853e-16
4.155e+00 3.966e+00 0.000e+00 7.064e-05 -9.956e-17
4.344e+00 3.966e+00 0.000e+00 7.342e-05 -1.820e-17
4.533e+00 3.966e+00 0.000e+00 7.510e-05 -5.038e-17
0.000e+00 4.155e+00 0.000e+00 7.566e-05 1.218e-18
1.889e-01 4.155e+00 0.000e+00 7.510e-05 -1.375e-16
3.777e-01 4.155e+00 0.000e+00 7.342e-05 -1.293e-16
5.666e-01 4.155e+00 0.000e+00 7.064e-05 1.248e-18
7.555e-01 4.155e+00 0.000e+00 6.680e-05 -3.484e-17
9.443e-01 4.155e+00 0.000e+00 6.204e-05 -1.824e-16
1.133e+00 4.155e+00 0.000e+00 5.657e-05 -8.563e-17
1.322e+00 4.155e+00 0.000e+00 5.072e-05 -8.291e-17
1.511e+00 4.155e+00 0.000e+00 4.489e-05 -1.131e-16
1.700e+00 4.155e+00 0.000e+00 3.952e-05 -1.170e-17
1.889e+00 4.155e+00 0.000e+00 3.506e-05 -1.292e-16
2.078e+00 4.155e+00 0.000e+00 3.186e-05 -5.562e-17
2.266e+00 4.155e+00 0.000e+00 3.019e-05 -7.870e-17
2.455e+00 4.155e+00 0.000e+00 3.019e-05 -9.984e-17
2.644e+00 4.155e+00 0.000e+00 3.186e-05 -4.336e-17
2.833e+00 4.155e+00 0.000e+00 3.506e-05 -3.661e-17
3.022e+00 4.155e+00 0.000e+00 3.952e-05 -4.649e-17
3.211e+00 4.155e+00 0.000e+00 4.489e-05 -2.403e-17
3.400e+00 4.155e+00 0.000e+00 5.072e-05 -4.389e-18
3.589e+00 4.155e+00 0.000e+00 5.657e-05 -3.485e-17
3.777e+00 4.155e+00 0.000e+00 6.204e-05 7.438e-17
3.966e+00 4.155e+00 0.000e+00 6.680e-05 -1.853e-16
4.155e+00 4.155e+00 0.000e+00 7.064e-05 -9.956e-17
4.344e+00 4.155e+00 0.000e+00 7.342e-05 -1.820e-17
4.533e+00 4.155e+00 0.000e+00 7.510e-05 -5.038e-17
0.000e+00 4.344e+00 0.000e+00 7.566e-05 1.218e-18
1.889e-01 4.344e+00 0.000e+00 7.510e-05 -1.375e-16
3.777e-01 4.344e+00 0.000e+00 7.342e-05 -1.293e-16
5.666e-01 4.344e+00 0.000e+00 7.064e-05 1.248e-18
7.555e-01 4.344e+00 0.000e+00 6.680e-05 -3.484e-17
9.443e-01 4.344e+00 0.000e+00 6.204e-05 -1.824e-16
1.133e+00 4.344e+00 0.000e+00 5.657e-05 -8.563e-17
1.322e+00 4.344e+00 0.000e+00 5.072e-05 -8.291e-17
1.511e+00 4.344e+00 0.000e+00 4.489e-05 -1.131e-16
1.700e+00 4.344e+00 0.000e+00 3.952e-05 -1.170e-17
1.889e+00 4.344e+00 0.000e+00 3.506e-05 -1.292e-16
2.078e+00 4.344e+00 0.000e+00 3.186e-05 -5.562e-17