TITLE = "rhoda"
VARIABLES = "X", "Y", "Z", "Real", "Imaginary"
ZONE I=25, J=25, K=75, F=POINT
0.000e+00 0.000e+00 0.000e+00 7.534e-03 -3.511e-16
1.889e-01 0.000e+00 0.000e+00 7.463e-03 -7.131e-15
3.777e-01 0.000e+00 0.000e+00 7.257e-03 1.683e-14
5.666e-01 0.000e+00 0.000e+00 6.934e-03 4.020e-15
7.555e-01 0.000e+00 0.000e+00 6.520e-03 -1.379e-14
9.443e-01 0.000e+00 0.000e+00 6.047e-03 1.164e-15
1.133e+00 0.000e+00 0.000e+00 5.545e-03 -2.619e-14
1.322e+00 0.000e+00 0.000e+00 5.045e-03 -1.203e-14
1.511e+00 0.000e+00 0.000e+00 4.573e-03 -1.289e-14
1.700e+00 0.000e+00 0.000e+00 4.156e-03 -3.096e-14
1.889e+00 0.000e+00 0.000e+00 3.817e-03 -9.368e-15
2.078e+00 0.000e+00 0.000e+00 3.577e-03 -1.547e-15
2.266e+00 0.000e+00 0.000e+00 3.453e-03 -8.560e-16
2.455e+00 0.000e+00 0.000e+00 3.453e-03 -3.598e-15
2.644e+00 0.000e+00 0.000e+00 3.577e-03 2.063e-14
2.833e+00 0.000e+00 0.000e+00 3.817e-03 3.156e-14
3.022e+00 0.000e+00 0.000e+00 4.156e-03 1.703e-14
3.211e+00 0.000e+00 0.000e+00 4.573e-03 2.061e-14
3.400e+00 0.000e+00 0.000e+00 5.045e-03 1.359e-14
3.589e+00 0.000e+00 0.000e+00 5.545e-03 2.840e-14
3.777e+00 0.000e+00 0.000e+00 6.047e-03 1.631e-15
3.966e+00 0.000e+00 0.000e+00 6.520e-03 9.646e-15
4.155e+00 0.000e+00 0.000e+00 6.934e-03 3.134e-15
4.344e+00 0.000e+00 0.000e+00 7.257e-03 3.475e-15
4.533e+00 0.000e+00 0.000e+00 7.463e-03 1.572e-14
0.000e+00 1.889e-01 0.000e+00 7.534e-03 -3.511e-16
1.889e-01 1.889e-01 0.000e+00 7.463e-03 -7.131e-15
3.777e-01 1.889e-01 0.000e+00 7.257e-03 1.683e-14
5.666e-01 1.889e-01 0.000e+00 6.934e-03 4.020e-15
7.555e-01 1.889e-01 0.000e+00 6.520e-03 -1.379e-14
9.443e-01 1.889e-01 0.000e+00 6.047e-03 1.164e-15
1.133e+00 1.889e-01 0.000e+00 5.545e-03 -2.619e-14
1.322e+00 1.889e-01 0.000e+00 5.045e-03 -1.203e-14
1.511e+00 1.889e-01 0.000e+00 4.573e-03 -1.289e-14
1.700e+00 1.889e-01 0.000e+00 4.156e-03 -3.096e-14
1.889e+00 1.889e-01 0.000e+00 3.817e-03 -9.368e-15
2.078e+00 1.889e-01 0.000e+00 3.577e-03 -1.547e-15
2.266e+00 1.889e-01 0.000e+00 3.453e-03 -8.560e-16
2.455e+00 1.889e-01 0.000e+00 3.453e-03 -3.598e-15
2.644e+00 1.889e-01 0.000e+00 3.577e-03 2.063e-14
2.833e+00 1.889e-01 0.000e+00 3.817e-03 3.156e-14
3.022e+00 1.889e-01 0.000e+00 4.156e-03 1.703e-14
3.211e+00 1.889e-01 0.000e+00 4.573e-03 2.061e-14
3.400e+00 1.889e-01 0.000e+00 5.045e-03 1.359e-14
3.589e+00 1.889e-01 0.000e+00 5.545e-03 2.840e-14
3.777e+00 1.889e-01 0.000e+00 6.047e-03 1.631e-15
3.966e+00 1.889e-01 0.000e+00 6.520e-03 9.646e-15
4.155e+00 1.889e-01 0.000e+00 6.934e-03 3.134e-15
4.344e+00 1.889e-01 0.000e+00 7.257e-03 3.475e-15
4.533e+00 1.889e-01 0.000e+00 7.463e-03 1.572e-14
0.000e+00 3.777e-01 0.000e+00 7.534e-03 -3.511e-16
1.889e-01 3.777e-01 0.000e+00 7.463e-03 -7.131e-15
3.777e-01 3.777e-01 0.000e+00 7.257e-03 1.683e-14
5.666e-01 3.777e-01 0.000e+00 6.934e-03 4.020e-15
7.555e-01 3.777e-01 0.000e+00 6.520e-03 -1.379e-14
9.443e-01 3.777e-01 0.000e+00 6.047e-03 1.164e-15
1.133e+00 3.777e-01 0.000e+00 5.545e-03 -2.619e-14
1.322e+00 3.777e-01 0.000e+00 5.045e-03 -1.203e-14
1.511e+00 3.777e-01 0.000e+00 4.573e-03 -1.289e-14
1.700e+00 3.777e-01 0.000e+00 4.156e-03 -3.096e-14
1.889e+00 3.777e-01 0.000e+00 3.817e-03 -9.368e-15
2.078e+00 3.777e-01 0.000e+00 3.577e-03 -1.547e-15
2.266e+00 3.777e-01 0.000e+00 3.453e-03 -8.560e-16
2.455e+00 3.777e-01 0.000e+00 3.453e-03 -3.598e-15
2.644e+00 3.777e-01 0.000e+00 3.577e-03 2.063e-14
2.833e+00 3.777e-01 0.000e+00 3.817e-03 3.156e-14
3.022e+00 3.777e-01 0.000e+00 4.156e-03 1.703e-14
3.211e+00 3.777e-01 0.000e+00 4.573e-03 2.061e-14
3.400e+00 3.777e-01 0.000e+00 5.045e-03 1.359e-14
3.589e+00 3.777e-01 0.000e+00 5.545e-03 2.840e-14
3.777e+00 3.777e-01 0.000e+00 6.047e-03 1.631e-15
3.966e+00 3.777e-01 0.000e+00 6.520e-03 9.646e-15
4.155e+00 3.777e-01 0.000e+00 6.934e-03 3.134e-15
4.344e+00 3.777e-01 0.000e+00 7.257e-03 3.475e-15
4.533e+00 3.777e-01 0.000e+00 7.463e-03 1.572e-14
0.000e+00 5.666e-01 0.000e+00 7.534e-03 -3.511e-16
1.889e-01 5.666e-01 0.000e+00 7.463e-03 -7.131e-15
3.777e-01 5.666e-01 0.000e+00 7.257e-03 1.683e-14
5.666e-01 5.666e-01 0.000e+00 6.934e-03 4.020e-15
7.555e-01 5.666e-01 0.000e+00 6.520e-03 -1.379e-14
9.443e-01 5.666e-01 0.000e+00 6.047e-03 1.164e-15
1.133e+00 5.666e-01 0.000e+00 5.545e-03 -2.619e-14
1.322e+00 5.666e-01 0.000e+00 5.045e-03 -1.203e-14
1.511e+00 5.666e-01 0.000e+00 4.573e-03 -1.289e-14
1.700e+00 5.666e-01 0.000e+00 4.156e-03 -3.096e-14
1.889e+00 5.666e-01 0.000e+00 3.817e-03 -9.368e-15
2.078e+00 5.666e-01 0.000e+00 3.577e-03 -1.547e-15
2.266e+00 5.666e-01 0.000e+00 3.453e-03 -8.560e-16
2.455e+00 5.666e-01 0.000e+00 3.453e-03 -3.598e-15
2.644e+00 5.666e-01 0.000e+00 3.577e-03 2.063e-14
2.833e+00 5.666e-01 0.000e+00 3.817e-03 3.156e-14
3.022e+00 5.666e-01 0.000e+00 4.156e-03 1.703e-14
3.211e+00 5.666e-01 0.000e+00 4.573e-03 2.061e-14
3.400e+00 5.666e-01 0.000e+00 5.045e-03 1.359e-14
3.589e+00 5.666e-01 0.000e+00 5.545e-03 2.840e-14
3.777e+00 5.666e-01 0.000e+00 6.047e-03 1.631e-15
3.966e+00 5.666e-01 0.000e+00 6.520e-03 9.646e-15
4.155e+00 5.666e-01 0.000e+00 6.934e-03 3.134e-15
4.344e+00 5.666e-01 0.000e+00 7.257e-03 3.475e-15
4.533e+00 5.666e-01 0.000e+00 7.463e-03 1.572e-14
0.000e+00 7.555e-01 0.000e+00 7.534e-03 -3.511e-16
1.889e-01 7.555e-01 0.000e+00 7.463e-03 -7.131e-15
3.777e-01 7.555e-01 0.000e+00 7.257e-03 1.683e-14
5.666e-01 7.555e-01 0.000e+00 6.934e-03 4.020e-15
7.555e-01 7.555e-01 0.000e+00 6.520e-03 -1.379e-14
9.443e-01 7.555e-01 0.000e+00 6.047e-03 1.164e-15
1.133e+00 7.555e-01 0.000e+00 5.545e-03 -2.619e-14
1.322e+00 7.555e-01 0.000e+00 5.045e-03 -1.203e-14
1.511e+00 7.555e-01 0.000e+00 4.573e-03 -1.289e-14
1.700e+00 7.555e-01 0.000e+00 4.156e-03 -3.096e-14
1.889e+00 7.555e-01 0.000e+00 3.817e-03 -9.368e-15
2.078e+00 7.555e-01 0.000e+00 3.577e-03 -1.547e-15
2.266e+00 7.555e-01 0.000e+00 3.453e-03 -8.560e-16
2.455e+00 7.555e-01 0.000e+00 3.453e-03 -3.598e-15
2.644e+00 7.555e-01 0.000e+00 3.577e-03 2.063e-14
2.833e+00 7.555e-01 0.000e+00 3.817e-03 3.156e-14
3.022e+00 7.555e-01 0.000e+00 4.156e-03 1.703e-14
3.211e+00 7.555e-01 0.000e+00 4.573e-03 2.061e-14
3.400e+00 7.555e-01 0.000e+00 5.045e-03 1.359e-14
3.589e+00 7.555e-01 0.000e+00 5.545e-03 2.840e-14
3.777e+00 7.555e-01 0.000e+00 6.047e-03 1.631e-15
3.966e+00 7.555e-01 0.000e+00 6.520e-03 9.646e-15
4.155e+00 7.555e-01 0.000e+00 6.934e-03 3.134e-15
4.344e+00 7.555e-01 0.000e+00 7.257e-03 3.475e-15
4.533e+00 7.555e-01 0.000e+00 7.463e-03 1.572e-14
0.000e+00 9.443e-01 0.000e+00 7.534e-03 -3.511e-16
1.889e-01 9.443e-01 0.000e+00 7.463e-03 -7.131e-15
3.777e-01 9.443e-01 0.000e+00 7.257e-03 1.683e-14
5.666e-01 9.443e-01 0.000e+00 6.934e-03 4.020e-15
7.555e-01 9.443e-01 0.000e+00 6.520e-03 -1.379e-14
9.443e-01 9.443e-01 0.000e+00 6.047e-03 1.164e-15
1.133e+00 9.443e-01 0.000e+00 5.545e-03 -2.619e-14
1.322e+00 9.443e-01 0.000e+00 5.045e-03 -1.203e-14
1.511e+00 9.443e-01 0.000e+00 4.573e-03 -1.289e-14
1.700e+00 9.443e-01 0.000e+00 4.156e-03 -3.096e-14
1.889e+00 9.443e-01 0.000e+00 3.817e-03 -9.368e-15
2.078e+00 9.443e-01 0.000e+00 3.577e-03 -1.547e-15
2.266e+00 9.443e-01 0.000e+00 3.453e-03 -8.560e-16
2.455e+00 9.443e-01 0.000e+00 3.453e-03 -3.598e-15
2.644e+00 9.443e-01 0.000e+00 3.577e-03 2.063e-14
2.833e+00 9.443e-01 0.000e+00 3.817e-03 3.156e-14
3.022e+00 9.443e-01 0.000e+00 4.156e-03 1.703e-14
3.211e+00 9.443e-01 0.000e+00 4.573e-03 2.061e-14
3.400e+00 9.443e-01 0.000e+00 5.045e-03 1.359e-14
3.589e+00 9.443e-01 0.000e+00 5.545e-03 2.840e-14
3.777e+00 9.443e-01 0.000e+00 6.047e-03 1.631e-15
3.966e+00 9.443e-01 0.000e+00 6.520e-03 9.646e-15
4.155e+00 9.443e-01 0.000e+00 6.934e-03 3.134e-15
4.344e+00 9.443e-01 0.000e+00 7.257e-03 3.475e-15
4.533e+00 9.443e-01 0.000e+00 7.463e-03 1.572e-14
0.000e+00 1.133e+00 0.000e+00 7.534e-03 -3.511e-16
1.889e-01 1.133e+00 0.000e+00 7.463e-03 -7.131e-15
3.777e-01 1.133e+00 0.000e+00 7.257e-03 1.683e-14
5.666e-01 1.133e+00 0.000e+00 6.934e-03 4.020e-15
7.555e-01 1.133e+00 0.000e+00 6.520e-03 -1.379e-14
9.443e-01 1.133e+00 0.000e+00 6.047e-03 1.164e-15
1.133e+00 1.133e+00 0.000e+00 5.545e-03 -2.619e-14
1.322e+00 1.133e+00 0.000e+00 5.045e-03 -1.203e-14
1.511e+00 1.133e+00 0.000e+00 4.573e-03 -1.289e-14
1.700e+00 1.133e+00 0.000e+00 4.156e-03 -3.096e-14
1.889e+00 1.133e+00 0.000e+00 3.817e-03 -9.368e-15
2.078e+00 1.133e+00 0.000e+00 3.577e-03 -1.547e-15
2.266e+00 1.133e+00 0.000e+00 3.453e-03 -8.560e-16
2.455e+00 1.133e+00 0.000e+00 3.453e-03 -3.598e-15
2.644e+00 1.133e+00 0.000e+00 3.577e-03 2.063e-14
2.833e+00 1.133e+00 0.000e+00 3.817e-03 3.156e-14
3.022e+00 1.133e+00 0.000e+00 4.156e-03 1.703e-14
3.211e+00 1.133e+00 0.000e+00 4.573e-03 2.061e-14
3.400e+00 1.133e+00 0.000e+00 5.045e-03 1.359e-14
3.589e+00 1.133e+00 0.000e+00 5.545e-03 2.840e-14
3.777e+00 1.133e+00 0.000e+00 6.047e-03 1.631e-15
3.966e+00 1.133e+00 0.000e+00 6.520e-03 9.646e-15
4.155e+00 1.133e+00 0.000e+00 6.934e-03 3.134e-15
4.344e+00 1.133e+00 0.000e+00 7.257e-03 3.475e-15
4.533e+00 1.133e+00 0.000e+00 7.463e-03 1.572e-14
0.000e+00 1.322e+00 0.000e+00 7.534e-03 -3.511e-16
1.889e-01 1.322e+00 0.000e+00 7.463e-03 -7.131e-15
3.777e-01 1.322e+00 0.000e+00 7.257e-03 1.683e-14
5.666e-01 1.322e+00 0.000e+00 6.934e-03 4.020e-15
7.555e-01 1.322e+00 0.000e+00 6.520e-03 -1.379e-14
9.443e-01 1.322e+00 0.000e+00 6.047e-03 1.164e-15
1.133e+00 1.322e+00 0.000e+00 5.545e-03 -2.619e-14
1.322e+00 1.322e+00 0.000e+00 5.045e-03 -1.203e-14
1.511e+00 1.322e+00 0.000e+00 4.573e-03 -1.289e-14
1.700e+00 1.322e+00 0.000e+00 4.156e-03 -3.096e-14
1.889e+00 1.322e+00 0.000e+00 3.817e-03 -9.368e-15
2.078e+00 1.322e+00 0.000e+00 3.577e-03 -1.547e-15
2.266e+00 1.322e+00 0.000e+00 3.453e-03 -8.560e-16
2.455e+00 1.322e+00 0.000e+00 3.453e-03 -3.598e-15
2.644e+00 1.322e+00 0.000e+00 3.577e-03 2.063e-14
2.833e+00 1.322e+00 0.000e+00 3.817e-03 3.156e-14
3.022e+00 1.322e+00 0.000e+00 4.156e-03 1.703e-14
3.211e+00 1.322e+00 0.000e+00 4.573e-03 2.061e-14
3.400e+00 1.322e+00 0.000e+00 5.045e-03 1.359e-14
3.589e+00 1.322e+00 0.000e+00 5.545e-03 2.840e-14
3.777e+00 1.322e+00 0.000e+00 6.047e-03 1.631e-15
3.966e+00 1.322e+00 0.000e+00 6.520e-03 9.646e-15
4.155e+00 1.322e+00 0.000e+00 6.934e-03 3.134e-15
4.344e+00 1.322e+00 0.000e+00 7.257e-03 3.475e-15
4.533e+00 1.322e+00 0.000e+00 7.463e-03 1.572e-14
0.000e+00 1.511e+00 0.000e+00 7.534e-03 -3.511e-16
1.889e-01 1.511e+00 0.000e+00 7.463e-03 -7.131e-15
3.777e-01 1.511e+00 0.000e+00 7.257e-03 1.683e-14
5.666e-01 1.511e+00 0.000e+00 6.934e-03 4.020e-15
7.555e-01 1.511e+00 0.000e+00 6.520e-03 -1.379e-14
9.443e-01 1.511e+00 0.000e+00 6.047e-03 1.164e-15
1.133e+00 1.511e+00 0.000e+00 5.545e-03 -2.619e-14
1.322e+00 1.511e+00 0.000e+00 5.045e-03 -1.203e-14
1.511e+00 1.511e+00 0.000e+00 4.573e-03 -1.289e-14
1.700e+00 1.511e+00 0.000e+00 4.156e-03 -3.096e-14
1.889e+00 1.511e+00 0.000e+00 3.817e-03 -9.368e-15
2.078e+00 1.511e+00 0.000e+00 3.577e-03 -1.547e-15
2.266e+00 1.511e+00 0.000e+00 3.453e-03 -8.560e-16
2.455e+00 1.511e+00 0.000e+00 3.453e-03 -3.598e-15
2.644e+00 1.511e+00 0.000e+00 3.577e-03 2.063e-14
2.833e+00 1.511e+00 0.000e+00 3.817e-03 3.156e-14
3.022e+00 1.511e+00 0.000e+00 4.156e-03 1.703e-14
3.211e+00 1.511e+00 0.000e+00 4.573e-03 2.061e-14
3.400e+00 1.511e+00 0.000e+00 5.045e-03 1.359e-14
3.589e+00 1.511e+00 0.000e+00 5.545e-03 2.840e-14
3.777e+00 1.511e+00 0.000e+00 6.047e-03 1.631e-15
3.966e+00 1.511e+00 0.000e+00 6.520e-03 9.646e-15
4.155e+00 1.511e+00 0.000e+00 6.934e-03 3.134e-15
4.344e+00 1.511e+00 0.000e+00 7.257e-03 3.475e-15
4.533e+00 1.511e+00 0.000e+00 7.463e-03 1.572e-14
0.000e+00 1.700e+00 0.000e+00 7.534e-03 -3.511e-16
1.889e-01 1.700e+00 0.000e+00 7.463e-03 -7.131e-15
3.777e-01 1.700e+00 0.000e+00 7.257e-03 1.683e-14
5.666e-01 1.700e+00 0.000e+00 6.934e-03 4.020e-15
7.555e-01 1.700e+00 0.000e+00 6.520e-03 -1.379e-14
9.443e-01 1.700e+00 0.000e+00 6.047e-03 1.164e-15
1.133e+00 1.700e+00 0.000e+00 5.545e-03 -2.619e-14
1.322e+00 1.700e+00 0.000e+00 5.045e-03 -1.203e-14
1.511e+00 1.700e+00 0.000e+00 4.573e-03 -1.289e-14
1.700e+00 1.700e+00 0.000e+00 4.156e-03 -3.096e-14
1.889e+00 1.700e+00 0.000e+00 3.817e-03 -9.368e-15
2.078e+00 1.700e+00 0.000e+00 3.577e-03 -1.547e-15
2.266e+00 1.700e+00 0.000e+00 3.453e-03 -8.560e-16
2.455e+00 1.700e+00 0.000e+00 3.453e-03 -3.598e-15
2.644e+00 1.700e+00 0.000e+00 3.577e-03 2.063e-14
2.833e+00 1.700e+00 0.000e+00 3.817e-03 3.156e-14
3.022e+00 1.700e+00 0.000e+00 4.156e-03 1.703e-14
3.211e+00 1.700e+00 0.000e+00 4.573e-03 2.061e-14
3.400e+00 1.700e+00 0.000e+00 5.045e-03 1.359e-14
3.589e+00 1.700e+00 0.000e+00 5.545e-03 2.840e-14
3.777e+00 1.700e+00 0.000e+00 6.047e-03 1.631e-15
3.966e+00 1.700e+00 0.000e+00 6.520e-03 9.646e-15
4.155e+00 1.700e+00 0.000e+00 6.934e-03 3.134e-15
4.344e+00 1.700e+00 0.000e+00 7.257e-03 3.475e-15
4.533e+00 1.700e+00 0.000e+00 7.463e-03 1.572e-14
0.000e+00 1.889e+00 0.000e+00 7.534e-03 -3.511e-16
1.889e-01 1.889e+00 0.000e+00 7.463e-03 -7.131e-15
3.777e-01 1.889e+00 0.000e+00 7.257e-03 1.683e-14
5.666e-01 1.889e+00 0.000e+00 6.934e-03 4.020e-15
7.555e-01 1.889e+00 0.000e+00 6.520e-03 -1.379e-14
9.443e-01 1.889e+00 0.000e+00 6.047e-03 1.164e-15
1.133e+00 1.889e+00 0.000e+00 5.545e-03 -2.619e-14
1.322e+00 1.889e+00 0.000e+00 5.045e-03 -1.203e-14
1.511e+00 1.889e+00 0.000e+00 4.573e-03 -1.289e-14
1.700e+00 1.889e+00 0.000e+00 4.156e-03 -3.096e-14
1.889e+00 1.889e+00 0.000e+00 3.817e-03 -9.368e-15
2.078e+00 1.889e+00 0.000e+00 3.577e-03 -1.547e-15
2.266e+00 1.889e+00 0.000e+00 3.453e-03 -8.560e-16
2.455e+00 1.889e+00 0.000e+00 3.453e-03 -3.598e-15
2.644e+00 1.889e+00 0.000e+00 3.577e-03 2.063e-14
2.833e+00 1.889e+00 0.000e+00 3.817e-03 3.156e-14
3.022e+00 1.889e+00 0.000e+00 4.156e-03 1.703e-14
3.211e+00 1.889e+00 0.000e+00 4.573e-03 2.061e-14
3.400e+00 1.889e+00 0.000e+00 5.045e-03 1.359e-14
3.589e+00 1.889e+00 0.000e+00 5.545e-03 2.840e-14
3.777e+00 1.889e+00 0.000e+00 6.047e-03 1.631e-15
3.966e+00 1.889e+00 0.000e+00 6.520e-03 9.646e-15
4.155e+00 1.889e+00 0.000e+00 6.934e-03 3.134e-15
4.344e+00 1.889e+00 0.000e+00 7.257e-03 3.475e-15
4.533e+00 1.889e+00 0.000e+00 7.463e-03 1.572e-14
0.000e+00 2.078e+00 0.000e+00 7.534e-03 -3.511e-16
1.889e-01 2.078e+00 0.000e+00 7.463e-03 -7.131e-15
3.777e-01 2.078e+00 0.000e+00 7.257e-03 1.683e-14
5.666e-01 2.078e+00 0.000e+00 6.934e-03 4.020e-15
7.555e-01 2.078e+00 0.000e+00 6.520e-03 -1.379e-14
9.443e-01 2.078e+00 0.000e+00 6.047e-03 1.164e-15
1.133e+00 2.078e+00 0.000e+00 5.545e-03 -2.619e-14
1.322e+00 2.078e+00 0.000e+00 5.045e-03 -1.203e-14
1.511e+00 2.078e+00 0.000e+00 4.573e-03 -1.289e-14
1.700e+00 2.078e+00 0.000e+00 4.156e-03 -3.096e-14
1.889e+00 2.078e+00 0.000e+00 3.817e-03 -9.368e-15
2.078e+00 2.078e+00 0.000e+00 3.577e-03 -1.547e-15
2.266e+00 2.078e+00 0.000e+00 3.453e-03 -8.560e-16
2.455e+00 2.078e+00 0.000e+00 3.453e-03 -3.598e-15
2.644e+00 2.078e+00 0.000e+00 3.577e-03 2.063e-14
2.833e+00 2.078e+00 0.000e+00 3.817e-03 3.156e-14
3.022e+00 2.078e+00 0.000e+00 4.156e-03 1.703e-14
3.211e+00 2.078e+00 0.000e+00 4.573e-03 2.061e-14
3.400e+00 2.078e+00 0.000e+00 5.045e-03 1.359e-14
3.589e+00 2.078e+00 0.000e+00 5.545e-03 2.840e-14
3.777e+00 2.078e+00 0.000e+00 6.047e-03 1.631e-15
3.966e+00 2.078e+00 0.000e+00 6.520e-03 9.646e-15
4.155e+00 2.078e+00 0.000e+00 6.934e-03 3.134e-15
4.344e+00 2.078e+00 0.000e+00 7.257e-03 3.475e-15
4.533e+00 2.078e+00 0.000e+00 7.463e-03 1.572e-14
0.000e+00 2.266e+00 0.000e+00 7.534e-03 -3.511e-16
1.889e-01 2.266e+00 0.000e+00 7.463e-03 -7.131e-15
3.777e-01 2.266e+00 0.000e+00 7.257e-03 1.683e-14
5.666e-01 2.266e+00 0.000e+00 6.934e-03 4.020e-15
7.555e-01 2.266e+00 0.000e+00 6.520e-03 -1.379e-14
9.443e-01 2.266e+00 0.000e+00 6.047e-03 1.164e-15
1.133e+00 2.266e+00 0.000e+00 5.545e-03 -2.619e-14
1.322e+00 2.266e+00 0.000e+00 5.045e-03 -1.203e-14
1.511e+00 2.266e+00 0.000e+00 4.573e-03 -1.289e-14
1.700e+00 2.266e+00 0.000e+00 4.156e-03 -3.096e-14
1.889e+00 2.266e+00 0.000e+00 3.817e-03 -9.368e-15
2.078e+00 2.266e+00 0.000e+00 3.577e-03 -1.547e-15
2.266e+00 2.266e+00 0.000e+00 3.453e-03 -8.560e-16
2.455e+00 2.266e+00 0.000e+00 3.453e-03 -3.598e-15
2.644e+00 2.266e+00 0.000e+00 3.577e-03 2.063e-14
2.833e+00 2.266e+00 0.000e+00 3.817e-03 3.156e-14
3.022e+00 2.266e+00 0.000e+00 4.156e-03 1.703e-14
3.211e+00 2.266e+00 0.000e+00 4.573e-03 2.061e-14
3.400e+00 2.266e+00 0.000e+00 5.045e-03 1.359e-14
3.589e+00 2.266e+00 0.000e+00 5.545e-03 2.840e-14
3.777e+00 2.266e+00 0.000e+00 6.047e-03 1.631e-15
3.966e+00 2.266e+00 0.000e+00 6.520e-03 9.646e-15
4.155e+00 2.266e+00 0.000e+00 6.934e-03 3.134e-15
4.344e+00 2.266e+00 0.000e+00 7.257e-03 3.475e-15
4.533e+00 2.266e+00 0.000e+00 7.463e-03 1.572e-14
0.000e+00 2.455e+00 0.000e+00 7.534e-03 -3.511e-16
1.889e-01 2.455e+00 0.000e+00 7.463e-03 -7.131e-15
3.777e-01 2.455e+00 0.000e+00 7.257e-03 1.683e-14
5.666e-01 2.455e+00 0.000e+00 6.934e-03 4.020e-15
7.555e-01 2.455e+00 0.000e+00 6.520e-03 -1.379e-14
9.443e-01 2.455e+00 0.000e+00 6.047e-03 1.164e-15
1.133e+00 2.455e+00 0.000e+00 5.545e-03 -2.619e-14
1.322e+00 2.455e+00 0.000e+00 5.045e-03 -1.203e-14
1.511e+00 2.455e+00 0.000e+00 4.573e-03 -1.289e-14
1.700e+00 2.455e+00 0.000e+00 4.156e-03 -3.096e-14
1.889e+00 2.455e+00 0.000e+00 3.817e-03 -9.368e-15
2.078e+00 2.455e+00 0.000e+00 3.577e-03 -1.547e-15
2.266e+00 2.455e+00 0.000e+00 3.453e-03 -8.560e-16
2.455e+00 2.455e+00 0.000e+00 3.453e-03 -3.598e-15
2.644e+00 2.455e+00 0.000e+00 3.577e-03 2.063e-14
2.833e+00 2.455e+00 0.000e+00 3.817e-03 3.156e-14
3.022e+00 2.455e+00 0.000e+00 4.156e-03 1.703e-14
3.211e+00 2.455e+00 0.000e+00 4.573e-03 2.061e-14
3.400e+00 2.455e+00 0.000e+00 5.045e-03 1.359e-14
3.589e+00 2.455e+00 0.000e+00 5.545e-03 2.840e-14
3.777e+00 2.455e+00 0.000e+00 6.047e-03 1.631e-15
3.966e+00 2.455e+00 0.000e+00 6.520e-03 9.646e-15
4.155e+00 2.455e+00 0.000e+00 6.934e-03 3.134e-15
4.344e+00 2.455e+00 0.000e+00 7.257e-03 3.475e-15
4.533e+00 2.455e+00 0.000e+00 7.463e-03 1.572e-14
0.000e+00 2.644e+00 0.000e+00 7.534e-03 -3.511e-16
1.889e-01 2.644e+00 0.000e+00 7.463e-03 -7.131e-15
3.777e-01 2.644e+00 0.000e+00 7.257e-03 1.683e-14
5.666e-01 2.644e+00 0.000e+00 6.934e-03 4.020e-15
7.555e-01 2.644e+00 0.000e+00 6.520e-03 -1.379e-14
9.443e-01 2.644e+00 0.000e+00 6.047e-03 1.164e-15
1.133e+00 2.644e+00 0.000e+00 5.545e-03 -2.619e-14
1.322e+00 2.644e+00 0.000e+00 5.045e-03 -1.203e-14
1.511e+00 2.644e+00 0.000e+00 4.573e-03 -1.289e-14
1.700e+00 2.644e+00 0.000e+00 4.156e-03 -3.096e-14
1.889e+00 2.644e+00 0.000e+00 3.817e-03 -9.368e-15
2.078e+00 2.644e+00 0.000e+00 3.577e-03 -1.547e-15
2.266e+00 2.644e+00 0.000e+00 3.453e-03 -8.560e-16
2.455e+00 2.644e+00 0.000e+00 3.453e-03 -3.598e-15
2.644e+00 2.644e+00 0.000e+00 3.577e-03 2.063e-14
2.833e+00 2.644e+00 0.000e+00 3.817e-03 3.156e-14
3.022e+00 2.644e+00 0.000e+00 4.156e-03 1.703e-14
3.211e+00 2.644e+00 0.000e+00 4.573e-03 2.061e-14
3.400e+00 2.644e+00 0.000e+00 5.045e-03 1.359e-14
3.589e+00 2.644e+00 0.000e+00 5.545e-03 2.840e-14
3.777e+00 2.644e+00 0.000e+00 6.047e-03 1.631e-15
3.966e+00 2.644e+00 0.000e+00 6.520e-03 9.646e-15
4.155e+00 2.644e+00 0.000e+00 6.934e-03 3.134e-15
4.344e+00 2.644e+00 0.000e+00 7.257e-03 3.475e-15
4.533e+00 2.644e+00 0.000e+00 7.463e-03 1.572e-14
0.000e+00 2.833e+00 0.000e+00 7.534e-03 -3.511e-16
1.889e-01 2.833e+00 0.000e+00 7.463e-03 -7.131e-15
3.777e-01 2.833e+00 0.000e+00 7.257e-03 1.683e-14
5.666e-01 2.833e+00 0.000e+00 6.934e-03 4.020e-15
7.555e-01 2.833e+00 0.000e+00 6.520e-03 -1.379e-14
9.443e-01 2.833e+00 0.000e+00 6.047e-03 1.164e-15
1.133e+00 2.833e+00 0.000e+00 5.545e-03 -2.619e-14
1.322e+00 2.833e+00 0.000e+00 5.045e-03 -1.203e-14
1.511e+00 2.833e+00 0.000e+00 4.573e-03 -1.289e-14
1.700e+00 2.833e+00 0.000e+00 4.156e-03 -3.096e-14
1.889e+00 2.833e+00 0.000e+00 3.817e-03 -9.368e-15
2.078e+00 2.833e+00 0.000e+00 3.577e-03 -1.547e-15
2.266e+00 2.833e+00 0.000e+00 3.453e-03 -8.560e-16
2.455e+00 2.833e+00 0.000e+00 3.453e-03 -3.598e-15
2.644e+00 2.833e+00 0.000e+00 3.577e-03 2.063e-14
2.833e+00 2.833e+00 0.000e+00 3.817e-03 3.156e-14
3.022e+00 2.833e+00 0.000e+00 4.156e-03 1.703e-14
3.211e+00 2.833e+00 0.000e+00 4.573e-03 2.061e-14
3.400e+00 2.833e+00 0.000e+00 5.045e-03 1.359e-14
3.589e+00 2.833e+00 0.000e+00 5.545e-03 2.840e-14
3.777e+00 2.833e+00 0.000e+00 6.047e-03 1.631e-15
3.966e+00 2.833e+00 0.000e+00 6.520e-03 9.646e-15
4.155e+00 2.833e+00 0.000e+00 6.934e-03 3.134e-15
4.344e+00 2.833e+00 0.000e+00 7.257e-03 3.475e-15
4.533e+00 2.833e+00 0.000e+00 7.463e-03 1.572e-14
0.000e+00 3.022e+00 0.000e+00 7.534e-03 -3.511e-16
1.889e-01 3.022e+00 0.000e+00 7.463e-03 -7.131e-15
3.777e-01 3.022e+00 0.000e+00 7.257e-03 1.683e-14
5.666e-01 3.022e+00 0.000e+00 6.934e-03 4.020e-15
7.555e-01 3.022e+00 0.000e+00 6.520e-03 -1.379e-14
9.443e-01 3.022e+00 0.000e+00 6.047e-03 1.164e-15
1.133e+00 3.022e+00 0.000e+00 5.545e-03 -2.619e-14
1.322e+00 3.022e+00 0.000e+00 5.045e-03 -1.203e-14
1.511e+00 3.022e+00 0.000e+00 4.573e-03 -1.289e-14
1.700e+00 3.022e+00 0.000e+00 4.156e-03 -3.096e-14
1.889e+00 3.022e+00 0.000e+00 3.817e-03 -9.368e-15
2.078e+00 3.022e+00 0.000e+00 3.577e-03 -1.547e-15
2.266e+00 3.022e+00 0.000e+00 3.453e-03 -8.560e-16
2.455e+00 3.022e+00 0.000e+00 3.453e-03 -3.598e-15
2.644e+00 3.022e+00 0.000e+00 3.577e-03 2.063e-14
2.833e+00 3.022e+00 0.000e+00 3.817e-03 3.156e-14
3.022e+00 3.022e+00 0.000e+00 4.156e-03 1.703e-14
3.211e+00 3.022e+00 0.000e+00 4.573e-03 2.061e-14
3.400e+00 3.022e+00 0.000e+00 5.045e-03 1.359e-14
3.589e+00 3.022e+00 0.000e+00 5.545e-03 2.840e-14
3.777e+00 3.022e+00 0.000e+00 6.047e-03 1.631e-15
3.966e+00 3.022e+00 0.000e+00 6.520e-03 9.646e-15
4.155e+00 3.022e+00 0.000e+00 6.934e-03 3.134e-15
4.344e+00 3.022e+00 0.000e+00 7.257e-03 3.475e-15
4.533e+00 3.022e+00 0.000e+00 7.463e-03 1.572e-14
0.000e+00 3.211e+00 0.000e+00 7.534e-03 -3.511e-16
1.889e-01 3.211e+00 0.000e+00 7.463e-03 -7.131e-15
3.777e-01 3.211e+00 0.000e+00 7.257e-03 1.683e-14
5.666e-01 3.211e+00 0.000e+00 6.934e-03 4.020e-15
7.555e-01 3.211e+00 0.000e+00 6.520e-03 -1.379e-14
9.443e-01 3.211e+00 0.000e+00 6.047e-03 1.164e-15
1.133e+00 3.211e+00 0.000e+00 5.545e-03 -2.619e-14
1.322e+00 3.211e+00 0.000e+00 5.045e-03 -1.203e-14
1.511e+00 3.211e+00 0.000e+00 4.573e-03 -1.289e-14
1.700e+00 3.211e+00 0.000e+00 4.156e-03 -3.096e-14
1.889e+00 3.211e+00 0.000e+00 3.817e-03 -9.368e-15
2.078e+00 3.211e+00 0.000e+00 3.577e-03 -1.547e-15
2.266e+00 3.211e+00 0.000e+00 3.453e-03 -8.560e-16
2.455e+00 3.211e+00 0.000e+00 3.453e-03 -3.598e-15
2.644e+00 3.211e+00 0.000e+00 3.577e-03 2.063e-14
2.833e+00 3.211e+00 0.000e+00 3.817e-03 3.156e-14
3.022e+00 3.211e+00 0.000e+00 4.156e-03 1.703e-14
3.211e+00 3.211e+00 0.000e+00 4.573e-03 2.061e-14
3.400e+00 3.211e+00 0.000e+00 5.045e-03 1.359e-14
3.589e+00 3.211e+00 0.000e+00 5.545e-03 2.840e-14
3.777e+00 3.211e+00 0.000e+00 6.047e-03 1.631e-15
3.966e+00 3.211e+00 0.000e+00 6.520e-03 9.646e-15
4.155e+00 3.211e+00 0.000e+00 6.934e-03 3.134e-15
4.344e+00 3.211e+00 0.000e+00 7.257e-03 3.475e-15
4.533e+00 3.211e+00 0.000e+00 7.463e-03 1.572e-14
0.000e+00 3.400e+00 0.000e+00 7.534e-03 -3.511e-16
1.889e-01 3.400e+00 0.000e+00 7.463e-03 -7.131e-15
3.777e-01 3.400e+00 0.000e+00 7.257e-03 1.683e-14
5.666e-01 3.400e+00 0.000e+00 6.934e-03 4.020e-15
7.555e-01 3.400e+00 0.000e+00 6.520e-03 -1.379e-14
9.443e-01 3.400e+00 0.000e+00 6.047e-03 1.164e-15
1.133e+00 3.400e+00 0.000e+00 5.545e-03 -2.619e-14
1.322e+00 3.400e+00 0.000e+00 5.045e-03 -1.203e-14
1.511e+00 3.400e+00 0.000e+00 4.573e-03 -1.289e-14
1.700e+00 3.400e+00 0.000e+00 4.156e-03 -3.096e-14
1.889e+00 3.400e+00 0.000e+00 3.817e-03 -9.368e-15
2.078e+00 3.400e+00 0.000e+00 3.577e-03 -1.547e-15
2.266e+00 3.400e+00 0.000e+00 3.453e-03 -8.560e-16
2.455e+00 3.400e+00 0.000e+00 3.453e-03 -3.598e-15
2.644e+00 3.400e+00 0.000e+00 3.577e-03 2.063e-14
2.833e+00 3.400e+00 0.000e+00 3.817e-03 3.156e-14
3.022e+00 3.400e+00 0.000e+00 4.156e-03 1.703e-14
3.211e+00 3.400e+00 0.000e+00 4.573e-03 2.061e-14
3.400e+00 3.400e+00 0.000e+00 5.045e-03 1.359e-14
3.589e+00 3.400e+00 0.000e+00 5.545e-03 2.840e-14
3.777e+00 3.400e+00 0.000e+00 6.047e-03 1.631e-15
3.966e+00 3.400e+00 0.000e+00 6.520e-03 9.646e-15
4.155e+00 3.400e+00 0.000e+00 6.934e-03 3.134e-15
4.344e+00 3.400e+00 0.000e+00 7.257e-03 3.475e-15
4.533e+00 3.400e+00 0.000e+00 7.463e-03 1.572e-14
0.000e+00 3.589e+00 0.000e+00 7.534e-03 -3.511e-16
1.889e-01 3.589e+00 0.000e+00 7.463e-03 -7.131e-15
3.777e-01 3.589e+00 0.000e+00 7.257e-03 1.683e-14
5.666e-01 3.589e+00 0.000e+00 6.934e-03 4.020e-15
7.555e-01 3.589e+00 0.000e+00 6.520e-03 -1.379e-14
9.443e-01 3.589e+00 0.000e+00 6.047e-03 1.164e-15
1.133e+00 3.589e+00 0.000e+00 5.545e-03 -2.619e-14
1.322e+00 3.589e+00 0.000e+00 5.045e-03 -1.203e-14
1.511e+00 3.589e+00 0.000e+00 4.573e-03 -1.289e-14
1.700e+00 3.589e+00 0.000e+00 4.156e-03 -3.096e-14
1.889e+00 3.589e+00 0.000e+00 3.817e-03 -9.368e-15
2.078e+00 3.589e+00 0.000e+00 3.577e-03 -1.547e-15
2.266e+00 3.589e+00 0.000e+00 3.453e-03 -8.560e-16
2.455e+00 3.589e+00 0.000e+00 3.453e-03 -3.598e-15
2.644e+00 3.589e+00 0.000e+00 3.577e-03 2.063e-14
2.833e+00 3.589e+00 0.000e+00 3.817e-03 3.156e-14
3.022e+00 3.589e+00 0.000e+00 4.156e-03 1.703e-14
3.211e+00 3.589e+00 0.000e+00 4.573e-03 2.061e-14
3.400e+00 3.589e+00 0.000e+00 5.045e-03 1.359e-14
3.589e+00 3.589e+00 0.000e+00 5.545e-03 2.840e-14
3.777e+00 3.589e+00 0.000e+00 6.047e-03 1.631e-15
3.966e+00 3.589e+00 0.000e+00 6.520e-03 9.646e-15
4.155e+00 3.589e+00 0.000e+00 6.934e-03 3.134e-15
4.344e+00 3.589e+00 0.000e+00 7.257e-03 3.475e-15
4.533e+00 3.589e+00 0.000e+00 7.463e-03 1.572e-14
0.000e+00 3.777e+00 0.000e+00 7.534e-03 -3.511e-16
1.889e-01 3.777e+00 0.000e+00 7.463e-03 -7.131e-15
3.777e-01 3.777e+00 0.000e+00 7.257e-03 1.683e-14
5.666e-01 3.777e+00 0.000e+00 6.934e-03 4.020e-15
7.555e-01 3.777e+00 0.000e+00 6.520e-03 -1.379e-14
9.443e-01 3.777e+00 0.000e+00 6.047e-03 1.164e-15
1.133e+00 3.777e+00 0.000e+00 5.545e-03 -2.619e-14
1.322e+00 3.777e+00 0.000e+00 5.045e-03 -1.203e-14
1.511e+00 3.777e+00 0.000e+00 4.573e-03 -1.289e-14
1.700e+00 3.777e+00 0.000e+00 4.156e-03 -3.096e-14
1.889e+00 3.777e+00 0.000e+00 3.817e-03 -9.368e-15
2.078e+00 3.777e+00 0.000e+00 3.577e-03 -1.547e-15
2.266e+00 3.777e+00 0.000e+00 3.453e-03 -8.560e-16
2.455e+00 3.777e+00 0.000e+00 3.453e-03 -3.598e-15
2.644e+00 3.777e+00 0.000e+00 3.577e-03 2.063e-14
2.833e+00 3.777e+00 0.000e+00 3.817e-03 3.156e-14
3.022e+00 3.777e+00 0.000e+00 4.156e-03 1.703e-14
3.211e+00 3.777e+00 0.000e+00 4.573e-03 2.061e-14
3.400e+00 3.777e+00 0.000e+00 5.045e-03 1.359e-14
3.589e+00 3.777e+00 0.000e+00 5.545e-03 2.840e-14
3.777e+00 3.777e+00 0.000e+00 6.047e-03 1.631e-15
3.966e+00 3.777e+00 0.000e+00 6.520e-03 9.646e-15
4.155e+00 3.777e+00 0.000e+00 6.934e-03 3.134e-15
4.344e+00 3.777e+00 0.000e+00 7.257e-03 3.475e-15
4.533e+00 3.777e+00 0.000e+00 7.463e-03 1.572e-14
0.000e+00 3.966e+00 0.000e+00 7.534e-03 -3.511e-16
1.889e-01 3.966e+00 0.000e+00 7.463e-03 -7.131e-15
3.777e-01 3.966e+00 0.000e+00 7.257e-03 1.683e-14
5.666e-01 3.966e+00 0.000e+00 6.934e-03 4.020e-15
7.555e-01 3.966e+00 0.000e+00 6.520e-03 -1.379e-14
9.443e-01 3.966e+00 0.000e+00 6.047e-03 1.164e-15
1.133e+00 3.966e+00 0.000e+00 5.545e-03 -2.619e-14
1.322e+00 3.966e+00 0.000e+00 5.045e-03 -1.203e-14
1.511e+00 3.966e+00 0.000e+00 4.573e-03 -1.289e-14
1.700e+00 3.966e+00 0.000e+00 4.156e-03 -3.096e-14
1.889e+00 3.966e+00 0.000e+00 3.817e-03 -9.368e-15
2.078e+00 3.966e+00 0.000e+00 3.577e-03 -1.547e-15
2.266e+00 3.966e+00 0.000e+00 3.453e-03 -8.560e-16
2.455e+00 3.966e+00 0.000e+00 3.453e-03 -3.598e-15
2.644e+00 3.966e+00 0.000e+00 3.577e-03 2.063e-14
2.833e+00 3.966e+00 0.000e+00 3.817e-03 3.156e-14
3.022e+00 3.966e+00 0.000e+00 4.156e-03 1.703e-14
3.211e+00 3.966e+00 0.000e+00 4.573e-03 2.061e-14
3.400e+00 3.966e+00 0.000e+00 5.045e-03 1.359e-14
3.589e+00 3.966e+00 0.000e+00 5.545e-03 2.840e-14
3.777e+00 3.966e+00 0.000e+00 6.047e-03 1.631e-15
3.966e+00 3.966e+00 0.000e+00 6.520e-03 9.646e-15
4.155e+00 3.966e+00 0.000e+00 6.934e-03 3.134e-15
4.344e+00 3.966e+00 0.000e+00 7.257e-03 3.475e-15
4.533e+00 3.966e+00 0.000e+00 7.463e-03 1.572e-14
0.000e+00 4.155e+00 0.000e+00 7.534e-03 -3.511e-16
1.889e-01 4.155e+00 0.000e+00 7.463e-03 -7.131e-15
3.777e-01 4.155e+00 0.000e+00 7.257e-03 1.683e-14
5.666e-01 4.155e+00 0.000e+00 6.934e-03 4.020e-15
7.555e-01 4.155e+00 0.000e+00 6.520e-03 -1.379e-14
9.443e-01 4.155e+00 0.000e+00 6.047e-03 1.164e-15
1.133e+00 4.155e+00 0.000e+00 5.545e-03 -2.619e-14
1.322e+00 4.155e+00 0.000e+00 5.045e-03 -1.203e-14
1.511e+00 4.155e+00 0.000e+00 4.573e-03 -1.289e-14
1.700e+00 4.155e+00 0.000e+00 4.156e-03 -3.096e-14
1.889e+00 4.155e+00 0.000e+00 3.817e-03 -9.368e-15
2.078e+00 4.155e+00 0.000e+00 3.577e-03 -1.547e-15
2.266e+00 4.155e+00 0.000e+00 3.453e-03 -8.560e-16
2.455e+00 4.155e+00 0.000e+00 3.453e-03 -3.598e-15
2.644e+00 4.155e+00 0.000e+00 3.577e-03 2.063e-14
2.833e+00 4.155e+00 0.000e+00 3.817e-03 3.156e-14
3.022e+00 4.155e+00 0.000e+00 4.156e-03 1.703e-14
3.211e+00 4.155e+00 0.000e+00 4.573e-03 2.061e-14
3.400e+00 4.155e+00 0.000e+00 5.045e-03 1.359e-14
3.589e+00 4.155e+00 0.000e+00 5.545e-03 2.840e-14
3.777e+00 4.155e+00 0.000e+00 6.047e-03 1.631e-15
3.966e+00 4.155e+00 0.000e+00 6.520e-03 9.646e-15
4.155e+00 4.155e+00 0.000e+00 6.934e-03 3.134e-15
4.344e+00 4.155e+00 0.000e+00 7.257e-03 3.475e-15
4.533e+00 4.155e+00 0.000e+00 7.463e-03 1.572e-14
0.000e+00 4.344e+00 0.000e+00 7.534e-03 -3.511e-16
1.889e-01 4.344e+00 0.000e+00 7.463e-03 -7.131e-15
3.777e-01 4.344e+00 0.000e+00 7.257e-03 1.683e-14
5.666e-01 4.344e+00 0.000e+00 6.934e-03 4.020e-15
7.555e-01 4.344e+00 0.000e+00 6.520e-03 -1.379e-14
9.443e-01 4.344e+00 0.000e+00 6.047e-03 1.164e-15
1.133e+00 4.344e+00 0.000e+00 5.545e-03 -2.619e-14
1.322e+00 4.344e+00 0.000e+00 5.045e-03 -1.203e-14
1.511e+00 4.344e+00 0.000e+00 4.573e-03 -1.289e-14
1.700e+00 4.344e+00 0.000e+00 4.156e-03 -3.096e-14
1.889e+00 4.344e+00 0.000e+00 3.817e-03 -9.368e-15
2.078e+00 4.344e+00 0.000e+00 3.577e-03 -1.547e-15
2.266e+00 4.344e+00 0.000e+00 3.453e-03 -8.560e-16
2.455e+00 4.344e+00 0.000e+00 3.453e-03 -3.598e-15
2.644e+00 4.344e+00 0.000e+00 3.577e-03 2.063e-14
2.833e+00 4.344e+00 0.000e+00 3.817e-03 3.156e-14
3.022e+00 4.344e+00 0.000e+00 4.156e-03 1.703e-14