TITLE = "rhohc_c"
VARIABLES = "X", "Y", "Z", "Real", "Imaginary"
ZONE I=25, J=25, K=75, F=POINT
0.000e+00 0.000e+00 0.000e+00 4.924e-04 2.089e-17
1.889e-01 0.000e+00 0.000e+00 4.924e-04 1.352e-16
3.777e-01 0.000e+00 0.000e+00 4.924e-04 9.093e-18
5.666e-01 0.000e+00 0.000e+00 4.924e-04 -1.370e-16
7.555e-01 0.000e+00 0.000e+00 4.924e-04 7.089e-17
9.443e-01 0.000e+00 0.000e+00 4.924e-04 -1.073e-16
1.133e+00 0.000e+00 0.000e+00 4.925e-04 -9.394e-17
1.322e+00 0.000e+00 0.000e+00 4.925e-04 -1.200e-17
1.511e+00 0.000e+00 0.000e+00 4.925e-04 -2.401e-17
1.700e+00 0.000e+00 0.000e+00 4.925e-04 -5.576e-18
1.889e+00 0.000e+00 0.000e+00 4.925e-04 1.109e-16
2.078e+00 0.000e+00 0.000e+00 4.925e-04 -5.334e-17
2.266e+00 0.000e+00 0.000e+00 4.925e-04 3.299e-17
2.455e+00 0.000e+00 0.000e+00 4.925e-04 8.308e-17
2.644e+00 0.000e+00 0.000e+00 4.925e-04 -2.527e-17
2.833e+00 0.000e+00 0.000e+00 4.925e-04 -2.648e-17
3.022e+00 0.000e+00 0.000e+00 4.925e-04 3.386e-17
3.211e+00 0.000e+00 0.000e+00 4.925e-04 -7.693e-17
3.400e+00 0.000e+00 0.000e+00 4.925e-04 -5.400e-17
3.589e+00 0.000e+00 0.000e+00 4.925e-04 -1.955e-18
3.777e+00 0.000e+00 0.000e+00 4.924e-04 -2.672e-17
3.966e+00 0.000e+00 0.000e+00 4.924e-04 5.960e-17
4.155e+00 0.000e+00 0.000e+00 4.924e-04 -1.957e-17
4.344e+00 0.000e+00 0.000e+00 4.924e-04 2.506e-17
4.533e+00 0.000e+00 0.000e+00 4.924e-04 8.826e-18
0.000e+00 1.889e-01 0.000e+00 4.924e-04 2.089e-17
1.889e-01 1.889e-01 0.000e+00 4.924e-04 1.352e-16
3.777e-01 1.889e-01 0.000e+00 4.924e-04 9.093e-18
5.666e-01 1.889e-01 0.000e+00 4.924e-04 -1.370e-16
7.555e-01 1.889e-01 0.000e+00 4.924e-04 7.089e-17
9.443e-01 1.889e-01 0.000e+00 4.924e-04 -1.073e-16
1.133e+00 1.889e-01 0.000e+00 4.925e-04 -9.394e-17
1.322e+00 1.889e-01 0.000e+00 4.925e-04 -1.200e-17
1.511e+00 1.889e-01 0.000e+00 4.925e-04 -2.401e-17
1.700e+00 1.889e-01 0.000e+00 4.925e-04 -5.576e-18
1.889e+00 1.889e-01 0.000e+00 4.925e-04 1.109e-16
2.078e+00 1.889e-01 0.000e+00 4.925e-04 -5.334e-17
2.266e+00 1.889e-01 0.000e+00 4.925e-04 3.299e-17
2.455e+00 1.889e-01 0.000e+00 4.925e-04 8.308e-17
2.644e+00 1.889e-01 0.000e+00 4.925e-04 -2.527e-17
2.833e+00 1.889e-01 0.000e+00 4.925e-04 -2.648e-17
3.022e+00 1.889e-01 0.000e+00 4.925e-04 3.386e-17
3.211e+00 1.889e-01 0.000e+00 4.925e-04 -7.693e-17
3.400e+00 1.889e-01 0.000e+00 4.925e-04 -5.400e-17
3.589e+00 1.889e-01 0.000e+00 4.925e-04 -1.955e-18
3.777e+00 1.889e-01 0.000e+00 4.924e-04 -2.672e-17
3.966e+00 1.889e-01 0.000e+00 4.924e-04 5.960e-17
4.155e+00 1.889e-01 0.000e+00 4.924e-04 -1.957e-17
4.344e+00 1.889e-01 0.000e+00 4.924e-04 2.506e-17
4.533e+00 1.889e-01 0.000e+00 4.924e-04 8.826e-18
0.000e+00 3.777e-01 0.000e+00 4.924e-04 2.089e-17
1.889e-01 3.777e-01 0.000e+00 4.924e-04 1.352e-16
3.777e-01 3.777e-01 0.000e+00 4.924e-04 9.093e-18
5.666e-01 3.777e-01 0.000e+00 4.924e-04 -1.370e-16
7.555e-01 3.777e-01 0.000e+00 4.924e-04 7.089e-17
9.443e-01 3.777e-01 0.000e+00 4.924e-04 -1.073e-16
1.133e+00 3.777e-01 0.000e+00 4.925e-04 -9.394e-17
1.322e+00 3.777e-01 0.000e+00 4.925e-04 -1.200e-17
1.511e+00 3.777e-01 0.000e+00 4.925e-04 -2.401e-17
1.700e+00 3.777e-01 0.000e+00 4.925e-04 -5.576e-18
1.889e+00 3.777e-01 0.000e+00 4.925e-04 1.109e-16
2.078e+00 3.777e-01 0.000e+00 4.925e-04 -5.334e-17
2.266e+00 3.777e-01 0.000e+00 4.925e-04 3.299e-17
2.455e+00 3.777e-01 0.000e+00 4.925e-04 8.308e-17
2.644e+00 3.777e-01 0.000e+00 4.925e-04 -2.527e-17
2.833e+00 3.777e-01 0.000e+00 4.925e-04 -2.648e-17
3.022e+00 3.777e-01 0.000e+00 4.925e-04 3.386e-17
3.211e+00 3.777e-01 0.000e+00 4.925e-04 -7.693e-17
3.400e+00 3.777e-01 0.000e+00 4.925e-04 -5.400e-17
3.589e+00 3.777e-01 0.000e+00 4.925e-04 -1.955e-18
3.777e+00 3.777e-01 0.000e+00 4.924e-04 -2.672e-17
3.966e+00 3.777e-01 0.000e+00 4.924e-04 5.960e-17
4.155e+00 3.777e-01 0.000e+00 4.924e-04 -1.957e-17
4.344e+00 3.777e-01 0.000e+00 4.924e-04 2.506e-17
4.533e+00 3.777e-01 0.000e+00 4.924e-04 8.826e-18
0.000e+00 5.666e-01 0.000e+00 4.924e-04 2.089e-17
1.889e-01 5.666e-01 0.000e+00 4.924e-04 1.352e-16
3.777e-01 5.666e-01 0.000e+00 4.924e-04 9.093e-18
5.666e-01 5.666e-01 0.000e+00 4.924e-04 -1.370e-16
7.555e-01 5.666e-01 0.000e+00 4.924e-04 7.089e-17
9.443e-01 5.666e-01 0.000e+00 4.924e-04 -1.073e-16
1.133e+00 5.666e-01 0.000e+00 4.925e-04 -9.394e-17
1.322e+00 5.666e-01 0.000e+00 4.925e-04 -1.200e-17
1.511e+00 5.666e-01 0.000e+00 4.925e-04 -2.401e-17
1.700e+00 5.666e-01 0.000e+00 4.925e-04 -5.576e-18
1.889e+00 5.666e-01 0.000e+00 4.925e-04 1.109e-16
2.078e+00 5.666e-01 0.000e+00 4.925e-04 -5.334e-17
2.266e+00 5.666e-01 0.000e+00 4.925e-04 3.299e-17
2.455e+00 5.666e-01 0.000e+00 4.925e-04 8.308e-17
2.644e+00 5.666e-01 0.000e+00 4.925e-04 -2.527e-17
2.833e+00 5.666e-01 0.000e+00 4.925e-04 -2.648e-17
3.022e+00 5.666e-01 0.000e+00 4.925e-04 3.386e-17
3.211e+00 5.666e-01 0.000e+00 4.925e-04 -7.693e-17
3.400e+00 5.666e-01 0.000e+00 4.925e-04 -5.400e-17
3.589e+00 5.666e-01 0.000e+00 4.925e-04 -1.955e-18
3.777e+00 5.666e-01 0.000e+00 4.924e-04 -2.672e-17
3.966e+00 5.666e-01 0.000e+00 4.924e-04 5.960e-17
4.155e+00 5.666e-01 0.000e+00 4.924e-04 -1.957e-17
4.344e+00 5.666e-01 0.000e+00 4.924e-04 2.506e-17
4.533e+00 5.666e-01 0.000e+00 4.924e-04 8.826e-18
0.000e+00 7.555e-01 0.000e+00 4.924e-04 2.089e-17
1.889e-01 7.555e-01 0.000e+00 4.924e-04 1.352e-16
3.777e-01 7.555e-01 0.000e+00 4.924e-04 9.093e-18
5.666e-01 7.555e-01 0.000e+00 4.924e-04 -1.370e-16
7.555e-01 7.555e-01 0.000e+00 4.924e-04 7.089e-17
9.443e-01 7.555e-01 0.000e+00 4.924e-04 -1.073e-16
1.133e+00 7.555e-01 0.000e+00 4.925e-04 -9.394e-17
1.322e+00 7.555e-01 0.000e+00 4.925e-04 -1.200e-17
1.511e+00 7.555e-01 0.000e+00 4.925e-04 -2.401e-17
1.700e+00 7.555e-01 0.000e+00 4.925e-04 -5.576e-18
1.889e+00 7.555e-01 0.000e+00 4.925e-04 1.109e-16
2.078e+00 7.555e-01 0.000e+00 4.925e-04 -5.334e-17
2.266e+00 7.555e-01 0.000e+00 4.925e-04 3.299e-17
2.455e+00 7.555e-01 0.000e+00 4.925e-04 8.308e-17
2.644e+00 7.555e-01 0.000e+00 4.925e-04 -2.527e-17
2.833e+00 7.555e-01 0.000e+00 4.925e-04 -2.648e-17
3.022e+00 7.555e-01 0.000e+00 4.925e-04 3.386e-17
3.211e+00 7.555e-01 0.000e+00 4.925e-04 -7.693e-17
3.400e+00 7.555e-01 0.000e+00 4.925e-04 -5.400e-17
3.589e+00 7.555e-01 0.000e+00 4.925e-04 -1.955e-18
3.777e+00 7.555e-01 0.000e+00 4.924e-04 -2.672e-17
3.966e+00 7.555e-01 0.000e+00 4.924e-04 5.960e-17
4.155e+00 7.555e-01 0.000e+00 4.924e-04 -1.957e-17
4.344e+00 7.555e-01 0.000e+00 4.924e-04 2.506e-17
4.533e+00 7.555e-01 0.000e+00 4.924e-04 8.826e-18
0.000e+00 9.443e-01 0.000e+00 4.924e-04 2.089e-17
1.889e-01 9.443e-01 0.000e+00 4.924e-04 1.352e-16
3.777e-01 9.443e-01 0.000e+00 4.924e-04 9.093e-18
5.666e-01 9.443e-01 0.000e+00 4.924e-04 -1.370e-16
7.555e-01 9.443e-01 0.000e+00 4.924e-04 7.089e-17
9.443e-01 9.443e-01 0.000e+00 4.924e-04 -1.073e-16
1.133e+00 9.443e-01 0.000e+00 4.925e-04 -9.394e-17
1.322e+00 9.443e-01 0.000e+00 4.925e-04 -1.200e-17
1.511e+00 9.443e-01 0.000e+00 4.925e-04 -2.401e-17
1.700e+00 9.443e-01 0.000e+00 4.925e-04 -5.576e-18
1.889e+00 9.443e-01 0.000e+00 4.925e-04 1.109e-16
2.078e+00 9.443e-01 0.000e+00 4.925e-04 -5.334e-17
2.266e+00 9.443e-01 0.000e+00 4.925e-04 3.299e-17
2.455e+00 9.443e-01 0.000e+00 4.925e-04 8.308e-17
2.644e+00 9.443e-01 0.000e+00 4.925e-04 -2.527e-17
2.833e+00 9.443e-01 0.000e+00 4.925e-04 -2.648e-17
3.022e+00 9.443e-01 0.000e+00 4.925e-04 3.386e-17
3.211e+00 9.443e-01 0.000e+00 4.925e-04 -7.693e-17
3.400e+00 9.443e-01 0.000e+00 4.925e-04 -5.400e-17
3.589e+00 9.443e-01 0.000e+00 4.925e-04 -1.955e-18
3.777e+00 9.443e-01 0.000e+00 4.924e-04 -2.672e-17
3.966e+00 9.443e-01 0.000e+00 4.924e-04 5.960e-17
4.155e+00 9.443e-01 0.000e+00 4.924e-04 -1.957e-17
4.344e+00 9.443e-01 0.000e+00 4.924e-04 2.506e-17
4.533e+00 9.443e-01 0.000e+00 4.924e-04 8.826e-18
0.000e+00 1.133e+00 0.000e+00 4.924e-04 2.089e-17
1.889e-01 1.133e+00 0.000e+00 4.924e-04 1.352e-16
3.777e-01 1.133e+00 0.000e+00 4.924e-04 9.093e-18
5.666e-01 1.133e+00 0.000e+00 4.924e-04 -1.370e-16
7.555e-01 1.133e+00 0.000e+00 4.924e-04 7.089e-17
9.443e-01 1.133e+00 0.000e+00 4.924e-04 -1.073e-16
1.133e+00 1.133e+00 0.000e+00 4.925e-04 -9.394e-17
1.322e+00 1.133e+00 0.000e+00 4.925e-04 -1.200e-17
1.511e+00 1.133e+00 0.000e+00 4.925e-04 -2.401e-17
1.700e+00 1.133e+00 0.000e+00 4.925e-04 -5.576e-18
1.889e+00 1.133e+00 0.000e+00 4.925e-04 1.109e-16
2.078e+00 1.133e+00 0.000e+00 4.925e-04 -5.334e-17
2.266e+00 1.133e+00 0.000e+00 4.925e-04 3.299e-17
2.455e+00 1.133e+00 0.000e+00 4.925e-04 8.308e-17
2.644e+00 1.133e+00 0.000e+00 4.925e-04 -2.527e-17
2.833e+00 1.133e+00 0.000e+00 4.925e-04 -2.648e-17
3.022e+00 1.133e+00 0.000e+00 4.925e-04 3.386e-17
3.211e+00 1.133e+00 0.000e+00 4.925e-04 -7.693e-17
3.400e+00 1.133e+00 0.000e+00 4.925e-04 -5.400e-17
3.589e+00 1.133e+00 0.000e+00 4.925e-04 -1.955e-18
3.777e+00 1.133e+00 0.000e+00 4.924e-04 -2.672e-17
3.966e+00 1.133e+00 0.000e+00 4.924e-04 5.960e-17
4.155e+00 1.133e+00 0.000e+00 4.924e-04 -1.957e-17
4.344e+00 1.133e+00 0.000e+00 4.924e-04 2.506e-17
4.533e+00 1.133e+00 0.000e+00 4.924e-04 8.826e-18
0.000e+00 1.322e+00 0.000e+00 4.924e-04 2.089e-17
1.889e-01 1.322e+00 0.000e+00 4.924e-04 1.352e-16
3.777e-01 1.322e+00 0.000e+00 4.924e-04 9.093e-18
5.666e-01 1.322e+00 0.000e+00 4.924e-04 -1.370e-16
7.555e-01 1.322e+00 0.000e+00 4.924e-04 7.089e-17
9.443e-01 1.322e+00 0.000e+00 4.924e-04 -1.073e-16
1.133e+00 1.322e+00 0.000e+00 4.925e-04 -9.394e-17
1.322e+00 1.322e+00 0.000e+00 4.925e-04 -1.200e-17
1.511e+00 1.322e+00 0.000e+00 4.925e-04 -2.401e-17
1.700e+00 1.322e+00 0.000e+00 4.925e-04 -5.576e-18
1.889e+00 1.322e+00 0.000e+00 4.925e-04 1.109e-16
2.078e+00 1.322e+00 0.000e+00 4.925e-04 -5.334e-17
2.266e+00 1.322e+00 0.000e+00 4.925e-04 3.299e-17
2.455e+00 1.322e+00 0.000e+00 4.925e-04 8.308e-17
2.644e+00 1.322e+00 0.000e+00 4.925e-04 -2.527e-17
2.833e+00 1.322e+00 0.000e+00 4.925e-04 -2.648e-17
3.022e+00 1.322e+00 0.000e+00 4.925e-04 3.386e-17
3.211e+00 1.322e+00 0.000e+00 4.925e-04 -7.693e-17
3.400e+00 1.322e+00 0.000e+00 4.925e-04 -5.400e-17
3.589e+00 1.322e+00 0.000e+00 4.925e-04 -1.955e-18
3.777e+00 1.322e+00 0.000e+00 4.924e-04 -2.672e-17
3.966e+00 1.322e+00 0.000e+00 4.924e-04 5.960e-17
4.155e+00 1.322e+00 0.000e+00 4.924e-04 -1.957e-17
4.344e+00 1.322e+00 0.000e+00 4.924e-04 2.506e-17
4.533e+00 1.322e+00 0.000e+00 4.924e-04 8.826e-18
0.000e+00 1.511e+00 0.000e+00 4.924e-04 2.089e-17
1.889e-01 1.511e+00 0.000e+00 4.924e-04 1.352e-16
3.777e-01 1.511e+00 0.000e+00 4.924e-04 9.093e-18
5.666e-01 1.511e+00 0.000e+00 4.924e-04 -1.370e-16
7.555e-01 1.511e+00 0.000e+00 4.924e-04 7.089e-17
9.443e-01 1.511e+00 0.000e+00 4.924e-04 -1.073e-16
1.133e+00 1.511e+00 0.000e+00 4.925e-04 -9.394e-17
1.322e+00 1.511e+00 0.000e+00 4.925e-04 -1.200e-17
1.511e+00 1.511e+00 0.000e+00 4.925e-04 -2.401e-17
1.700e+00 1.511e+00 0.000e+00 4.925e-04 -5.576e-18
1.889e+00 1.511e+00 0.000e+00 4.925e-04 1.109e-16
2.078e+00 1.511e+00 0.000e+00 4.925e-04 -5.334e-17
2.266e+00 1.511e+00 0.000e+00 4.925e-04 3.299e-17
2.455e+00 1.511e+00 0.000e+00 4.925e-04 8.308e-17
2.644e+00 1.511e+00 0.000e+00 4.925e-04 -2.527e-17
2.833e+00 1.511e+00 0.000e+00 4.925e-04 -2.648e-17
3.022e+00 1.511e+00 0.000e+00 4.925e-04 3.386e-17
3.211e+00 1.511e+00 0.000e+00 4.925e-04 -7.693e-17
3.400e+00 1.511e+00 0.000e+00 4.925e-04 -5.400e-17
3.589e+00 1.511e+00 0.000e+00 4.925e-04 -1.955e-18
3.777e+00 1.511e+00 0.000e+00 4.924e-04 -2.672e-17
3.966e+00 1.511e+00 0.000e+00 4.924e-04 5.960e-17
4.155e+00 1.511e+00 0.000e+00 4.924e-04 -1.957e-17
4.344e+00 1.511e+00 0.000e+00 4.924e-04 2.506e-17
4.533e+00 1.511e+00 0.000e+00 4.924e-04 8.826e-18
0.000e+00 1.700e+00 0.000e+00 4.924e-04 2.089e-17
1.889e-01 1.700e+00 0.000e+00 4.924e-04 1.352e-16
3.777e-01 1.700e+00 0.000e+00 4.924e-04 9.093e-18
5.666e-01 1.700e+00 0.000e+00 4.924e-04 -1.370e-16
7.555e-01 1.700e+00 0.000e+00 4.924e-04 7.089e-17
9.443e-01 1.700e+00 0.000e+00 4.924e-04 -1.073e-16
1.133e+00 1.700e+00 0.000e+00 4.925e-04 -9.394e-17
1.322e+00 1.700e+00 0.000e+00 4.925e-04 -1.200e-17
1.511e+00 1.700e+00 0.000e+00 4.925e-04 -2.401e-17
1.700e+00 1.700e+00 0.000e+00 4.925e-04 -5.576e-18
1.889e+00 1.700e+00 0.000e+00 4.925e-04 1.109e-16
2.078e+00 1.700e+00 0.000e+00 4.925e-04 -5.334e-17
2.266e+00 1.700e+00 0.000e+00 4.925e-04 3.299e-17
2.455e+00 1.700e+00 0.000e+00 4.925e-04 8.308e-17
2.644e+00 1.700e+00 0.000e+00 4.925e-04 -2.527e-17
2.833e+00 1.700e+00 0.000e+00 4.925e-04 -2.648e-17
3.022e+00 1.700e+00 0.000e+00 4.925e-04 3.386e-17
3.211e+00 1.700e+00 0.000e+00 4.925e-04 -7.693e-17
3.400e+00 1.700e+00 0.000e+00 4.925e-04 -5.400e-17
3.589e+00 1.700e+00 0.000e+00 4.925e-04 -1.955e-18
3.777e+00 1.700e+00 0.000e+00 4.924e-04 -2.672e-17
3.966e+00 1.700e+00 0.000e+00 4.924e-04 5.960e-17
4.155e+00 1.700e+00 0.000e+00 4.924e-04 -1.957e-17
4.344e+00 1.700e+00 0.000e+00 4.924e-04 2.506e-17
4.533e+00 1.700e+00 0.000e+00 4.924e-04 8.826e-18
0.000e+00 1.889e+00 0.000e+00 4.924e-04 2.089e-17
1.889e-01 1.889e+00 0.000e+00 4.924e-04 1.352e-16
3.777e-01 1.889e+00 0.000e+00 4.924e-04 9.093e-18
5.666e-01 1.889e+00 0.000e+00 4.924e-04 -1.370e-16
7.555e-01 1.889e+00 0.000e+00 4.924e-04 7.089e-17
9.443e-01 1.889e+00 0.000e+00 4.924e-04 -1.073e-16
1.133e+00 1.889e+00 0.000e+00 4.925e-04 -9.394e-17
1.322e+00 1.889e+00 0.000e+00 4.925e-04 -1.200e-17
1.511e+00 1.889e+00 0.000e+00 4.925e-04 -2.401e-17
1.700e+00 1.889e+00 0.000e+00 4.925e-04 -5.576e-18
1.889e+00 1.889e+00 0.000e+00 4.925e-04 1.109e-16
2.078e+00 1.889e+00 0.000e+00 4.925e-04 -5.334e-17
2.266e+00 1.889e+00 0.000e+00 4.925e-04 3.299e-17
2.455e+00 1.889e+00 0.000e+00 4.925e-04 8.308e-17
2.644e+00 1.889e+00 0.000e+00 4.925e-04 -2.527e-17
2.833e+00 1.889e+00 0.000e+00 4.925e-04 -2.648e-17
3.022e+00 1.889e+00 0.000e+00 4.925e-04 3.386e-17
3.211e+00 1.889e+00 0.000e+00 4.925e-04 -7.693e-17
3.400e+00 1.889e+00 0.000e+00 4.925e-04 -5.400e-17
3.589e+00 1.889e+00 0.000e+00 4.925e-04 -1.955e-18
3.777e+00 1.889e+00 0.000e+00 4.924e-04 -2.672e-17
3.966e+00 1.889e+00 0.000e+00 4.924e-04 5.960e-17
4.155e+00 1.889e+00 0.000e+00 4.924e-04 -1.957e-17
4.344e+00 1.889e+00 0.000e+00 4.924e-04 2.506e-17
4.533e+00 1.889e+00 0.000e+00 4.924e-04 8.826e-18
0.000e+00 2.078e+00 0.000e+00 4.924e-04 2.089e-17
1.889e-01 2.078e+00 0.000e+00 4.924e-04 1.352e-16
3.777e-01 2.078e+00 0.000e+00 4.924e-04 9.093e-18
5.666e-01 2.078e+00 0.000e+00 4.924e-04 -1.370e-16
7.555e-01 2.078e+00 0.000e+00 4.924e-04 7.089e-17
9.443e-01 2.078e+00 0.000e+00 4.924e-04 -1.073e-16
1.133e+00 2.078e+00 0.000e+00 4.925e-04 -9.394e-17
1.322e+00 2.078e+00 0.000e+00 4.925e-04 -1.200e-17
1.511e+00 2.078e+00 0.000e+00 4.925e-04 -2.401e-17
1.700e+00 2.078e+00 0.000e+00 4.925e-04 -5.576e-18
1.889e+00 2.078e+00 0.000e+00 4.925e-04 1.109e-16
2.078e+00 2.078e+00 0.000e+00 4.925e-04 -5.334e-17
2.266e+00 2.078e+00 0.000e+00 4.925e-04 3.299e-17
2.455e+00 2.078e+00 0.000e+00 4.925e-04 8.308e-17
2.644e+00 2.078e+00 0.000e+00 4.925e-04 -2.527e-17
2.833e+00 2.078e+00 0.000e+00 4.925e-04 -2.648e-17
3.022e+00 2.078e+00 0.000e+00 4.925e-04 3.386e-17
3.211e+00 2.078e+00 0.000e+00 4.925e-04 -7.693e-17
3.400e+00 2.078e+00 0.000e+00 4.925e-04 -5.400e-17
3.589e+00 2.078e+00 0.000e+00 4.925e-04 -1.955e-18
3.777e+00 2.078e+00 0.000e+00 4.924e-04 -2.672e-17
3.966e+00 2.078e+00 0.000e+00 4.924e-04 5.960e-17
4.155e+00 2.078e+00 0.000e+00 4.924e-04 -1.957e-17
4.344e+00 2.078e+00 0.000e+00 4.924e-04 2.506e-17
4.533e+00 2.078e+00 0.000e+00 4.924e-04 8.826e-18
0.000e+00 2.266e+00 0.000e+00 4.924e-04 2.089e-17
1.889e-01 2.266e+00 0.000e+00 4.924e-04 1.352e-16
3.777e-01 2.266e+00 0.000e+00 4.924e-04 9.093e-18
5.666e-01 2.266e+00 0.000e+00 4.924e-04 -1.370e-16
7.555e-01 2.266e+00 0.000e+00 4.924e-04 7.089e-17
9.443e-01 2.266e+00 0.000e+00 4.924e-04 -1.073e-16
1.133e+00 2.266e+00 0.000e+00 4.925e-04 -9.394e-17
1.322e+00 2.266e+00 0.000e+00 4.925e-04 -1.200e-17
1.511e+00 2.266e+00 0.000e+00 4.925e-04 -2.401e-17
1.700e+00 2.266e+00 0.000e+00 4.925e-04 -5.576e-18
1.889e+00 2.266e+00 0.000e+00 4.925e-04 1.109e-16
2.078e+00 2.266e+00 0.000e+00 4.925e-04 -5.334e-17
2.266e+00 2.266e+00 0.000e+00 4.925e-04 3.299e-17
2.455e+00 2.266e+00 0.000e+00 4.925e-04 8.308e-17
2.644e+00 2.266e+00 0.000e+00 4.925e-04 -2.527e-17
2.833e+00 2.266e+00 0.000e+00 4.925e-04 -2.648e-17
3.022e+00 2.266e+00 0.000e+00 4.925e-04 3.386e-17
3.211e+00 2.266e+00 0.000e+00 4.925e-04 -7.693e-17
3.400e+00 2.266e+00 0.000e+00 4.925e-04 -5.400e-17
3.589e+00 2.266e+00 0.000e+00 4.925e-04 -1.955e-18
3.777e+00 2.266e+00 0.000e+00 4.924e-04 -2.672e-17
3.966e+00 2.266e+00 0.000e+00 4.924e-04 5.960e-17
4.155e+00 2.266e+00 0.000e+00 4.924e-04 -1.957e-17
4.344e+00 2.266e+00 0.000e+00 4.924e-04 2.506e-17
4.533e+00 2.266e+00 0.000e+00 4.924e-04 8.826e-18
0.000e+00 2.455e+00 0.000e+00 4.924e-04 2.089e-17
1.889e-01 2.455e+00 0.000e+00 4.924e-04 1.352e-16
3.777e-01 2.455e+00 0.000e+00 4.924e-04 9.093e-18
5.666e-01 2.455e+00 0.000e+00 4.924e-04 -1.370e-16
7.555e-01 2.455e+00 0.000e+00 4.924e-04 7.089e-17
9.443e-01 2.455e+00 0.000e+00 4.924e-04 -1.073e-16
1.133e+00 2.455e+00 0.000e+00 4.925e-04 -9.394e-17
1.322e+00 2.455e+00 0.000e+00 4.925e-04 -1.200e-17
1.511e+00 2.455e+00 0.000e+00 4.925e-04 -2.401e-17
1.700e+00 2.455e+00 0.000e+00 4.925e-04 -5.576e-18
1.889e+00 2.455e+00 0.000e+00 4.925e-04 1.109e-16
2.078e+00 2.455e+00 0.000e+00 4.925e-04 -5.334e-17
2.266e+00 2.455e+00 0.000e+00 4.925e-04 3.299e-17
2.455e+00 2.455e+00 0.000e+00 4.925e-04 8.308e-17
2.644e+00 2.455e+00 0.000e+00 4.925e-04 -2.527e-17
2.833e+00 2.455e+00 0.000e+00 4.925e-04 -2.648e-17
3.022e+00 2.455e+00 0.000e+00 4.925e-04 3.386e-17
3.211e+00 2.455e+00 0.000e+00 4.925e-04 -7.693e-17
3.400e+00 2.455e+00 0.000e+00 4.925e-04 -5.400e-17
3.589e+00 2.455e+00 0.000e+00 4.925e-04 -1.955e-18
3.777e+00 2.455e+00 0.000e+00 4.924e-04 -2.672e-17
3.966e+00 2.455e+00 0.000e+00 4.924e-04 5.960e-17
4.155e+00 2.455e+00 0.000e+00 4.924e-04 -1.957e-17
4.344e+00 2.455e+00 0.000e+00 4.924e-04 2.506e-17
4.533e+00 2.455e+00 0.000e+00 4.924e-04 8.826e-18
0.000e+00 2.644e+00 0.000e+00 4.924e-04 2.089e-17
1.889e-01 2.644e+00 0.000e+00 4.924e-04 1.352e-16
3.777e-01 2.644e+00 0.000e+00 4.924e-04 9.093e-18
5.666e-01 2.644e+00 0.000e+00 4.924e-04 -1.370e-16
7.555e-01 2.644e+00 0.000e+00 4.924e-04 7.089e-17
9.443e-01 2.644e+00 0.000e+00 4.924e-04 -1.073e-16
1.133e+00 2.644e+00 0.000e+00 4.925e-04 -9.394e-17
1.322e+00 2.644e+00 0.000e+00 4.925e-04 -1.200e-17
1.511e+00 2.644e+00 0.000e+00 4.925e-04 -2.401e-17
1.700e+00 2.644e+00 0.000e+00 4.925e-04 -5.576e-18
1.889e+00 2.644e+00 0.000e+00 4.925e-04 1.109e-16
2.078e+00 2.644e+00 0.000e+00 4.925e-04 -5.334e-17
2.266e+00 2.644e+00 0.000e+00 4.925e-04 3.299e-17
2.455e+00 2.644e+00 0.000e+00 4.925e-04 8.308e-17
2.644e+00 2.644e+00 0.000e+00 4.925e-04 -2.527e-17
2.833e+00 2.644e+00 0.000e+00 4.925e-04 -2.648e-17
3.022e+00 2.644e+00 0.000e+00 4.925e-04 3.386e-17
3.211e+00 2.644e+00 0.000e+00 4.925e-04 -7.693e-17
3.400e+00 2.644e+00 0.000e+00 4.925e-04 -5.400e-17
3.589e+00 2.644e+00 0.000e+00 4.925e-04 -1.955e-18
3.777e+00 2.644e+00 0.000e+00 4.924e-04 -2.672e-17
3.966e+00 2.644e+00 0.000e+00 4.924e-04 5.960e-17
4.155e+00 2.644e+00 0.000e+00 4.924e-04 -1.957e-17
4.344e+00 2.644e+00 0.000e+00 4.924e-04 2.506e-17
4.533e+00 2.644e+00 0.000e+00 4.924e-04 8.826e-18
0.000e+00 2.833e+00 0.000e+00 4.924e-04 2.089e-17
1.889e-01 2.833e+00 0.000e+00 4.924e-04 1.352e-16
3.777e-01 2.833e+00 0.000e+00 4.924e-04 9.093e-18
5.666e-01 2.833e+00 0.000e+00 4.924e-04 -1.370e-16
7.555e-01 2.833e+00 0.000e+00 4.924e-04 7.089e-17
9.443e-01 2.833e+00 0.000e+00 4.924e-04 -1.073e-16
1.133e+00 2.833e+00 0.000e+00 4.925e-04 -9.394e-17
1.322e+00 2.833e+00 0.000e+00 4.925e-04 -1.200e-17
1.511e+00 2.833e+00 0.000e+00 4.925e-04 -2.401e-17
1.700e+00 2.833e+00 0.000e+00 4.925e-04 -5.576e-18
1.889e+00 2.833e+00 0.000e+00 4.925e-04 1.109e-16
2.078e+00 2.833e+00 0.000e+00 4.925e-04 -5.334e-17
2.266e+00 2.833e+00 0.000e+00 4.925e-04 3.299e-17
2.455e+00 2.833e+00 0.000e+00 4.925e-04 8.308e-17
2.644e+00 2.833e+00 0.000e+00 4.925e-04 -2.527e-17
2.833e+00 2.833e+00 0.000e+00 4.925e-04 -2.648e-17
3.022e+00 2.833e+00 0.000e+00 4.925e-04 3.386e-17
3.211e+00 2.833e+00 0.000e+00 4.925e-04 -7.693e-17
3.400e+00 2.833e+00 0.000e+00 4.925e-04 -5.400e-17
3.589e+00 2.833e+00 0.000e+00 4.925e-04 -1.955e-18
3.777e+00 2.833e+00 0.000e+00 4.924e-04 -2.672e-17
3.966e+00 2.833e+00 0.000e+00 4.924e-04 5.960e-17
4.155e+00 2.833e+00 0.000e+00 4.924e-04 -1.957e-17
4.344e+00 2.833e+00 0.000e+00 4.924e-04 2.506e-17
4.533e+00 2.833e+00 0.000e+00 4.924e-04 8.826e-18
0.000e+00 3.022e+00 0.000e+00 4.924e-04 2.089e-17
1.889e-01 3.022e+00 0.000e+00 4.924e-04 1.352e-16
3.777e-01 3.022e+00 0.000e+00 4.924e-04 9.093e-18
5.666e-01 3.022e+00 0.000e+00 4.924e-04 -1.370e-16
7.555e-01 3.022e+00 0.000e+00 4.924e-04 7.089e-17
9.443e-01 3.022e+00 0.000e+00 4.924e-04 -1.073e-16
1.133e+00 3.022e+00 0.000e+00 4.925e-04 -9.394e-17
1.322e+00 3.022e+00 0.000e+00 4.925e-04 -1.200e-17
1.511e+00 3.022e+00 0.000e+00 4.925e-04 -2.401e-17
1.700e+00 3.022e+00 0.000e+00 4.925e-04 -5.576e-18
1.889e+00 3.022e+00 0.000e+00 4.925e-04 1.109e-16
2.078e+00 3.022e+00 0.000e+00 4.925e-04 -5.334e-17
2.266e+00 3.022e+00 0.000e+00 4.925e-04 3.299e-17
2.455e+00 3.022e+00 0.000e+00 4.925e-04 8.308e-17
2.644e+00 3.022e+00 0.000e+00 4.925e-04 -2.527e-17
2.833e+00 3.022e+00 0.000e+00 4.925e-04 -2.648e-17
3.022e+00 3.022e+00 0.000e+00 4.925e-04 3.386e-17
3.211e+00 3.022e+00 0.000e+00 4.925e-04 -7.693e-17
3.400e+00 3.022e+00 0.000e+00 4.925e-04 -5.400e-17
3.589e+00 3.022e+00 0.000e+00 4.925e-04 -1.955e-18
3.777e+00 3.022e+00 0.000e+00 4.924e-04 -2.672e-17
3.966e+00 3.022e+00 0.000e+00 4.924e-04 5.960e-17
4.155e+00 3.022e+00 0.000e+00 4.924e-04 -1.957e-17
4.344e+00 3.022e+00 0.000e+00 4.924e-04 2.506e-17
4.533e+00 3.022e+00 0.000e+00 4.924e-04 8.826e-18
0.000e+00 3.211e+00 0.000e+00 4.924e-04 2.089e-17
1.889e-01 3.211e+00 0.000e+00 4.924e-04 1.352e-16
3.777e-01 3.211e+00 0.000e+00 4.924e-04 9.093e-18
5.666e-01 3.211e+00 0.000e+00 4.924e-04 -1.370e-16
7.555e-01 3.211e+00 0.000e+00 4.924e-04 7.089e-17
9.443e-01 3.211e+00 0.000e+00 4.924e-04 -1.073e-16
1.133e+00 3.211e+00 0.000e+00 4.925e-04 -9.394e-17
1.322e+00 3.211e+00 0.000e+00 4.925e-04 -1.200e-17
1.511e+00 3.211e+00 0.000e+00 4.925e-04 -2.401e-17
1.700e+00 3.211e+00 0.000e+00 4.925e-04 -5.576e-18
1.889e+00 3.211e+00 0.000e+00 4.925e-04 1.109e-16
2.078e+00 3.211e+00 0.000e+00 4.925e-04 -5.334e-17
2.266e+00 3.211e+00 0.000e+00 4.925e-04 3.299e-17
2.455e+00 3.211e+00 0.000e+00 4.925e-04 8.308e-17
2.644e+00 3.211e+00 0.000e+00 4.925e-04 -2.527e-17
2.833e+00 3.211e+00 0.000e+00 4.925e-04 -2.648e-17
3.022e+00 3.211e+00 0.000e+00 4.925e-04 3.386e-17
3.211e+00 3.211e+00 0.000e+00 4.925e-04 -7.693e-17
3.400e+00 3.211e+00 0.000e+00 4.925e-04 -5.400e-17
3.589e+00 3.211e+00 0.000e+00 4.925e-04 -1.955e-18
3.777e+00 3.211e+00 0.000e+00 4.924e-04 -2.672e-17
3.966e+00 3.211e+00 0.000e+00 4.924e-04 5.960e-17
4.155e+00 3.211e+00 0.000e+00 4.924e-04 -1.957e-17
4.344e+00 3.211e+00 0.000e+00 4.924e-04 2.506e-17
4.533e+00 3.211e+00 0.000e+00 4.924e-04 8.826e-18
0.000e+00 3.400e+00 0.000e+00 4.924e-04 2.089e-17
1.889e-01 3.400e+00 0.000e+00 4.924e-04 1.352e-16
3.777e-01 3.400e+00 0.000e+00 4.924e-04 9.093e-18
5.666e-01 3.400e+00 0.000e+00 4.924e-04 -1.370e-16
7.555e-01 3.400e+00 0.000e+00 4.924e-04 7.089e-17
9.443e-01 3.400e+00 0.000e+00 4.924e-04 -1.073e-16
1.133e+00 3.400e+00 0.000e+00 4.925e-04 -9.394e-17
1.322e+00 3.400e+00 0.000e+00 4.925e-04 -1.200e-17
1.511e+00 3.400e+00 0.000e+00 4.925e-04 -2.401e-17
1.700e+00 3.400e+00 0.000e+00 4.925e-04 -5.576e-18
1.889e+00 3.400e+00 0.000e+00 4.925e-04 1.109e-16
2.078e+00 3.400e+00 0.000e+00 4.925e-04 -5.334e-17
2.266e+00 3.400e+00 0.000e+00 4.925e-04 3.299e-17
2.455e+00 3.400e+00 0.000e+00 4.925e-04 8.308e-17
2.644e+00 3.400e+00 0.000e+00 4.925e-04 -2.527e-17
2.833e+00 3.400e+00 0.000e+00 4.925e-04 -2.648e-17
3.022e+00 3.400e+00 0.000e+00 4.925e-04 3.386e-17
3.211e+00 3.400e+00 0.000e+00 4.925e-04 -7.693e-17
3.400e+00 3.400e+00 0.000e+00 4.925e-04 -5.400e-17
3.589e+00 3.400e+00 0.000e+00 4.925e-04 -1.955e-18
3.777e+00 3.400e+00 0.000e+00 4.924e-04 -2.672e-17
3.966e+00 3.400e+00 0.000e+00 4.924e-04 5.960e-17
4.155e+00 3.400e+00 0.000e+00 4.924e-04 -1.957e-17
4.344e+00 3.400e+00 0.000e+00 4.924e-04 2.506e-17
4.533e+00 3.400e+00 0.000e+00 4.924e-04 8.826e-18
0.000e+00 3.589e+00 0.000e+00 4.924e-04 2.089e-17
1.889e-01 3.589e+00 0.000e+00 4.924e-04 1.352e-16
3.777e-01 3.589e+00 0.000e+00 4.924e-04 9.093e-18
5.666e-01 3.589e+00 0.000e+00 4.924e-04 -1.370e-16
7.555e-01 3.589e+00 0.000e+00 4.924e-04 7.089e-17
9.443e-01 3.589e+00 0.000e+00 4.924e-04 -1.073e-16
1.133e+00 3.589e+00 0.000e+00 4.925e-04 -9.394e-17
1.322e+00 3.589e+00 0.000e+00 4.925e-04 -1.200e-17
1.511e+00 3.589e+00 0.000e+00 4.925e-04 -2.401e-17
1.700e+00 3.589e+00 0.000e+00 4.925e-04 -5.576e-18
1.889e+00 3.589e+00 0.000e+00 4.925e-04 1.109e-16
2.078e+00 3.589e+00 0.000e+00 4.925e-04 -5.334e-17
2.266e+00 3.589e+00 0.000e+00 4.925e-04 3.299e-17
2.455e+00 3.589e+00 0.000e+00 4.925e-04 8.308e-17
2.644e+00 3.589e+00 0.000e+00 4.925e-04 -2.527e-17
2.833e+00 3.589e+00 0.000e+00 4.925e-04 -2.648e-17
3.022e+00 3.589e+00 0.000e+00 4.925e-04 3.386e-17
3.211e+00 3.589e+00 0.000e+00 4.925e-04 -7.693e-17
3.400e+00 3.589e+00 0.000e+00 4.925e-04 -5.400e-17
3.589e+00 3.589e+00 0.000e+00 4.925e-04 -1.955e-18
3.777e+00 3.589e+00 0.000e+00 4.924e-04 -2.672e-17
3.966e+00 3.589e+00 0.000e+00 4.924e-04 5.960e-17
4.155e+00 3.589e+00 0.000e+00 4.924e-04 -1.957e-17
4.344e+00 3.589e+00 0.000e+00 4.924e-04 2.506e-17
4.533e+00 3.589e+00 0.000e+00 4.924e-04 8.826e-18
0.000e+00 3.777e+00 0.000e+00 4.924e-04 2.089e-17
1.889e-01 3.777e+00 0.000e+00 4.924e-04 1.352e-16
3.777e-01 3.777e+00 0.000e+00 4.924e-04 9.093e-18
5.666e-01 3.777e+00 0.000e+00 4.924e-04 -1.370e-16
7.555e-01 3.777e+00 0.000e+00 4.924e-04 7.089e-17
9.443e-01 3.777e+00 0.000e+00 4.924e-04 -1.073e-16
1.133e+00 3.777e+00 0.000e+00 4.925e-04 -9.394e-17
1.322e+00 3.777e+00 0.000e+00 4.925e-04 -1.200e-17
1.511e+00 3.777e+00 0.000e+00 4.925e-04 -2.401e-17
1.700e+00 3.777e+00 0.000e+00 4.925e-04 -5.576e-18
1.889e+00 3.777e+00 0.000e+00 4.925e-04 1.109e-16
2.078e+00 3.777e+00 0.000e+00 4.925e-04 -5.334e-17
2.266e+00 3.777e+00 0.000e+00 4.925e-04 3.299e-17
2.455e+00 3.777e+00 0.000e+00 4.925e-04 8.308e-17
2.644e+00 3.777e+00 0.000e+00 4.925e-04 -2.527e-17
2.833e+00 3.777e+00 0.000e+00 4.925e-04 -2.648e-17
3.022e+00 3.777e+00 0.000e+00 4.925e-04 3.386e-17
3.211e+00 3.777e+00 0.000e+00 4.925e-04 -7.693e-17
3.400e+00 3.777e+00 0.000e+00 4.925e-04 -5.400e-17
3.589e+00 3.777e+00 0.000e+00 4.925e-04 -1.955e-18
3.777e+00 3.777e+00 0.000e+00 4.924e-04 -2.672e-17
3.966e+00 3.777e+00 0.000e+00 4.924e-04 5.960e-17
4.155e+00 3.777e+00 0.000e+00 4.924e-04 -1.957e-17
4.344e+00 3.777e+00 0.000e+00 4.924e-04 2.506e-17
4.533e+00 3.777e+00 0.000e+00 4.924e-04 8.826e-18
0.000e+00 3.966e+00 0.000e+00 4.924e-04 2.089e-17
1.889e-01 3.966e+00 0.000e+00 4.924e-04 1.352e-16
3.777e-01 3.966e+00 0.000e+00 4.924e-04 9.093e-18
5.666e-01 3.966e+00 0.000e+00 4.924e-04 -1.370e-16
7.555e-01 3.966e+00 0.000e+00 4.924e-04 7.089e-17
9.443e-01 3.966e+00 0.000e+00 4.924e-04 -1.073e-16
1.133e+00 3.966e+00 0.000e+00 4.925e-04 -9.394e-17
1.322e+00 3.966e+00 0.000e+00 4.925e-04 -1.200e-17
1.511e+00 3.966e+00 0.000e+00 4.925e-04 -2.401e-17
1.700e+00 3.966e+00 0.000e+00 4.925e-04 -5.576e-18
1.889e+00 3.966e+00 0.000e+00 4.925e-04 1.109e-16
2.078e+00 3.966e+00 0.000e+00 4.925e-04 -5.334e-17
2.266e+00 3.966e+00 0.000e+00 4.925e-04 3.299e-17
2.455e+00 3.966e+00 0.000e+00 4.925e-04 8.308e-17
2.644e+00 3.966e+00 0.000e+00 4.925e-04 -2.527e-17
2.833e+00 3.966e+00 0.000e+00 4.925e-04 -2.648e-17
3.022e+00 3.966e+00 0.000e+00 4.925e-04 3.386e-17
3.211e+00 3.966e+00 0.000e+00 4.925e-04 -7.693e-17
3.400e+00 3.966e+00 0.000e+00 4.925e-04 -5.400e-17
3.589e+00 3.966e+00 0.000e+00 4.925e-04 -1.955e-18
3.777e+00 3.966e+00 0.000e+00 4.924e-04 -2.672e-17
3.966e+00 3.966e+00 0.000e+00 4.924e-04 5.960e-17
4.155e+00 3.966e+00 0.000e+00 4.924e-04 -1.957e-17
4.344e+00 3.966e+00 0.000e+00 4.924e-04 2.506e-17
4.533e+00 3.966e+00 0.000e+00 4.924e-04 8.826e-18
0.000e+00 4.155e+00 0.000e+00 4.924e-04 2.089e-17
1.889e-01 4.155e+00 0.000e+00 4.924e-04 1.352e-16
3.777e-01 4.155e+00 0.000e+00 4.924e-04 9.093e-18
5.666e-01 4.155e+00 0.000e+00 4.924e-04 -1.370e-16
7.555e-01 4.155e+00 0.000e+00 4.924e-04 7.089e-17
9.443e-01 4.155e+00 0.000e+00 4.924e-04 -1.073e-16
1.133e+00 4.155e+00 0.000e+00 4.925e-04 -9.394e-17
1.322e+00 4.155e+00 0.000e+00 4.925e-04 -1.200e-17
1.511e+00 4.155e+00 0.000e+00 4.925e-04 -2.401e-17
1.700e+00 4.155e+00 0.000e+00 4.925e-04 -5.576e-18
1.889e+00 4.155e+00 0.000e+00 4.925e-04 1.109e-16
2.078e+00 4.155e+00 0.000e+00 4.925e-04 -5.334e-17
2.266e+00 4.155e+00 0.000e+00 4.925e-04 3.299e-17
2.455e+00 4.155e+00 0.000e+00 4.925e-04 8.308e-17
2.644e+00 4.155e+00 0.000e+00 4.925e-04 -2.527e-17
2.833e+00 4.155e+00 0.000e+00 4.925e-04 -2.648e-17
3.022e+00 4.155e+00 0.000e+00 4.925e-04 3.386e-17
3.211e+00 4.155e+00 0.000e+00 4.925e-04 -7.693e-17
3.400e+00 4.155e+00 0.000e+00 4.925e-04 -5.400e-17
3.589e+00 4.155e+00 0.000e+00 4.925e-04 -1.955e-18
3.777e+00 4.155e+00 0.000e+00 4.924e-04 -2.672e-17
3.966e+00 4.155e+00 0.000e+00 4.924e-04 5.960e-17
4.155e+00 4.155e+00 0.000e+00 4.924e-04 -1.957e-17
4.344e+00 4.155e+00 0.000e+00 4.924e-04 2.506e-17
4.533e+00 4.155e+00 0.000e+00 4.924e-04 8.826e-18
0.000e+00 4.344e+00 0.000e+00 4.924e-04 2.089e-17
1.889e-01 4.344e+00 0.000e+00 4.924e-04 1.352e-16
3.777e-01 4.344e+00 0.000e+00 4.924e-04 9.093e-18
5.666e-01 4.344e+00 0.000e+00 4.924e-04 -1.370e-16
7.555e-01 4.344e+00 0.000e+00 4.924e-04 7.089e-17
9.443e-01 4.344e+00 0.000e+00 4.924e-04 -1.073e-16
1.133e+00 4.344e+00 0.000e+00 4.925e-04 -9.394e-17
1.322e+00 4.344e+00 0.000e+00 4.925e-04 -1.200e-17
1.511e+00 4.344e+00 0.000e+00 4.925e-04 -2.401e-17
1.700e+00 4.344e+00 0.000e+00 4.925e-04 -5.576e-18
1.889e+00 4.344e+00 0.000e+00 4.925e-04 1.109e-16
2.078e+00 4.344e+00 0.000e+00 4.925e-04 -5.334e-17
2.266e+00 4.344e+00 0.000e+00 4.925e-04 3.299e-17
2.455e+00 4.344e+00 0.000e+00 4.925e-04 8.308e-17
2.644e+00 4.344e+00 0.000e+00 4.925e-04 -2.527e-17
2.833e+00 4.344e+00 0.000e+00 4.925e-04 -2.648e-17