TITLE = "rhohc"
VARIABLES = "X", "Y", "Z", "Real", "Imaginary"
ZONE I=25, J=25, K=75, F=POINT
0.000e+00 0.000e+00 0.000e+00 3.050e-02 1.317e-14
1.889e-01 0.000e+00 0.000e+00 3.050e-02 -1.217e-14
3.777e-01 0.000e+00 0.000e+00 3.050e-02 1.429e-14
5.666e-01 0.000e+00 0.000e+00 3.050e-02 8.866e-15
7.555e-01 0.000e+00 0.000e+00 3.050e-02 -1.622e-15
9.443e-01 0.000e+00 0.000e+00 3.050e-02 1.110e-14
1.133e+00 0.000e+00 0.000e+00 3.050e-02 6.629e-15
1.322e+00 0.000e+00 0.000e+00 3.050e-02 2.839e-14
1.511e+00 0.000e+00 0.000e+00 3.050e-02 1.182e-14
1.700e+00 0.000e+00 0.000e+00 3.050e-02 7.278e-15
1.889e+00 0.000e+00 0.000e+00 3.050e-02 1.708e-14
2.078e+00 0.000e+00 0.000e+00 3.050e-02 -1.246e-14
2.266e+00 0.000e+00 0.000e+00 3.050e-02 -4.930e-15
2.455e+00 0.000e+00 0.000e+00 3.050e-02 1.833e-14
2.644e+00 0.000e+00 0.000e+00 3.050e-02 4.749e-15
2.833e+00 0.000e+00 0.000e+00 3.050e-02 -1.083e-14
3.022e+00 0.000e+00 0.000e+00 3.050e-02 1.318e-14
3.211e+00 0.000e+00 0.000e+00 3.050e-02 1.513e-14
3.400e+00 0.000e+00 0.000e+00 3.050e-02 -1.086e-14
3.589e+00 0.000e+00 0.000e+00 3.050e-02 -8.797e-15
3.777e+00 0.000e+00 0.000e+00 3.050e-02 4.880e-15
3.966e+00 0.000e+00 0.000e+00 3.050e-02 4.651e-15
4.155e+00 0.000e+00 0.000e+00 3.050e-02 2.135e-14
4.344e+00 0.000e+00 0.000e+00 3.050e-02 1.244e-14
4.533e+00 0.000e+00 0.000e+00 3.050e-02 9.302e-15
0.000e+00 1.889e-01 0.000e+00 3.050e-02 1.317e-14
1.889e-01 1.889e-01 0.000e+00 3.050e-02 -1.217e-14
3.777e-01 1.889e-01 0.000e+00 3.050e-02 1.429e-14
5.666e-01 1.889e-01 0.000e+00 3.050e-02 8.866e-15
7.555e-01 1.889e-01 0.000e+00 3.050e-02 -1.622e-15
9.443e-01 1.889e-01 0.000e+00 3.050e-02 1.110e-14
1.133e+00 1.889e-01 0.000e+00 3.050e-02 6.629e-15
1.322e+00 1.889e-01 0.000e+00 3.050e-02 2.839e-14
1.511e+00 1.889e-01 0.000e+00 3.050e-02 1.182e-14
1.700e+00 1.889e-01 0.000e+00 3.050e-02 7.278e-15
1.889e+00 1.889e-01 0.000e+00 3.050e-02 1.708e-14
2.078e+00 1.889e-01 0.000e+00 3.050e-02 -1.246e-14
2.266e+00 1.889e-01 0.000e+00 3.050e-02 -4.930e-15
2.455e+00 1.889e-01 0.000e+00 3.050e-02 1.833e-14
2.644e+00 1.889e-01 0.000e+00 3.050e-02 4.749e-15
2.833e+00 1.889e-01 0.000e+00 3.050e-02 -1.083e-14
3.022e+00 1.889e-01 0.000e+00 3.050e-02 1.318e-14
3.211e+00 1.889e-01 0.000e+00 3.050e-02 1.513e-14
3.400e+00 1.889e-01 0.000e+00 3.050e-02 -1.086e-14
3.589e+00 1.889e-01 0.000e+00 3.050e-02 -8.797e-15
3.777e+00 1.889e-01 0.000e+00 3.050e-02 4.880e-15
3.966e+00 1.889e-01 0.000e+00 3.050e-02 4.651e-15
4.155e+00 1.889e-01 0.000e+00 3.050e-02 2.135e-14
4.344e+00 1.889e-01 0.000e+00 3.050e-02 1.244e-14
4.533e+00 1.889e-01 0.000e+00 3.050e-02 9.302e-15
0.000e+00 3.777e-01 0.000e+00 3.050e-02 1.317e-14
1.889e-01 3.777e-01 0.000e+00 3.050e-02 -1.217e-14
3.777e-01 3.777e-01 0.000e+00 3.050e-02 1.429e-14
5.666e-01 3.777e-01 0.000e+00 3.050e-02 8.866e-15
7.555e-01 3.777e-01 0.000e+00 3.050e-02 -1.622e-15
9.443e-01 3.777e-01 0.000e+00 3.050e-02 1.110e-14
1.133e+00 3.777e-01 0.000e+00 3.050e-02 6.629e-15
1.322e+00 3.777e-01 0.000e+00 3.050e-02 2.839e-14
1.511e+00 3.777e-01 0.000e+00 3.050e-02 1.182e-14
1.700e+00 3.777e-01 0.000e+00 3.050e-02 7.278e-15
1.889e+00 3.777e-01 0.000e+00 3.050e-02 1.708e-14
2.078e+00 3.777e-01 0.000e+00 3.050e-02 -1.246e-14
2.266e+00 3.777e-01 0.000e+00 3.050e-02 -4.930e-15
2.455e+00 3.777e-01 0.000e+00 3.050e-02 1.833e-14
2.644e+00 3.777e-01 0.000e+00 3.050e-02 4.749e-15
2.833e+00 3.777e-01 0.000e+00 3.050e-02 -1.083e-14
3.022e+00 3.777e-01 0.000e+00 3.050e-02 1.318e-14
3.211e+00 3.777e-01 0.000e+00 3.050e-02 1.513e-14
3.400e+00 3.777e-01 0.000e+00 3.050e-02 -1.086e-14
3.589e+00 3.777e-01 0.000e+00 3.050e-02 -8.797e-15
3.777e+00 3.777e-01 0.000e+00 3.050e-02 4.880e-15
3.966e+00 3.777e-01 0.000e+00 3.050e-02 4.651e-15
4.155e+00 3.777e-01 0.000e+00 3.050e-02 2.135e-14
4.344e+00 3.777e-01 0.000e+00 3.050e-02 1.244e-14
4.533e+00 3.777e-01 0.000e+00 3.050e-02 9.302e-15
0.000e+00 5.666e-01 0.000e+00 3.050e-02 1.317e-14
1.889e-01 5.666e-01 0.000e+00 3.050e-02 -1.217e-14
3.777e-01 5.666e-01 0.000e+00 3.050e-02 1.429e-14
5.666e-01 5.666e-01 0.000e+00 3.050e-02 8.866e-15
7.555e-01 5.666e-01 0.000e+00 3.050e-02 -1.622e-15
9.443e-01 5.666e-01 0.000e+00 3.050e-02 1.110e-14
1.133e+00 5.666e-01 0.000e+00 3.050e-02 6.629e-15
1.322e+00 5.666e-01 0.000e+00 3.050e-02 2.839e-14
1.511e+00 5.666e-01 0.000e+00 3.050e-02 1.182e-14
1.700e+00 5.666e-01 0.000e+00 3.050e-02 7.278e-15
1.889e+00 5.666e-01 0.000e+00 3.050e-02 1.708e-14
2.078e+00 5.666e-01 0.000e+00 3.050e-02 -1.246e-14
2.266e+00 5.666e-01 0.000e+00 3.050e-02 -4.930e-15
2.455e+00 5.666e-01 0.000e+00 3.050e-02 1.833e-14
2.644e+00 5.666e-01 0.000e+00 3.050e-02 4.749e-15
2.833e+00 5.666e-01 0.000e+00 3.050e-02 -1.083e-14
3.022e+00 5.666e-01 0.000e+00 3.050e-02 1.318e-14
3.211e+00 5.666e-01 0.000e+00 3.050e-02 1.513e-14
3.400e+00 5.666e-01 0.000e+00 3.050e-02 -1.086e-14
3.589e+00 5.666e-01 0.000e+00 3.050e-02 -8.797e-15
3.777e+00 5.666e-01 0.000e+00 3.050e-02 4.880e-15
3.966e+00 5.666e-01 0.000e+00 3.050e-02 4.651e-15
4.155e+00 5.666e-01 0.000e+00 3.050e-02 2.135e-14
4.344e+00 5.666e-01 0.000e+00 3.050e-02 1.244e-14
4.533e+00 5.666e-01 0.000e+00 3.050e-02 9.302e-15
0.000e+00 7.555e-01 0.000e+00 3.050e-02 1.317e-14
1.889e-01 7.555e-01 0.000e+00 3.050e-02 -1.217e-14
3.777e-01 7.555e-01 0.000e+00 3.050e-02 1.429e-14
5.666e-01 7.555e-01 0.000e+00 3.050e-02 8.866e-15
7.555e-01 7.555e-01 0.000e+00 3.050e-02 -1.622e-15
9.443e-01 7.555e-01 0.000e+00 3.050e-02 1.110e-14
1.133e+00 7.555e-01 0.000e+00 3.050e-02 6.629e-15
1.322e+00 7.555e-01 0.000e+00 3.050e-02 2.839e-14
1.511e+00 7.555e-01 0.000e+00 3.050e-02 1.182e-14
1.700e+00 7.555e-01 0.000e+00 3.050e-02 7.278e-15
1.889e+00 7.555e-01 0.000e+00 3.050e-02 1.708e-14
2.078e+00 7.555e-01 0.000e+00 3.050e-02 -1.246e-14
2.266e+00 7.555e-01 0.000e+00 3.050e-02 -4.930e-15
2.455e+00 7.555e-01 0.000e+00 3.050e-02 1.833e-14
2.644e+00 7.555e-01 0.000e+00 3.050e-02 4.749e-15
2.833e+00 7.555e-01 0.000e+00 3.050e-02 -1.083e-14
3.022e+00 7.555e-01 0.000e+00 3.050e-02 1.318e-14
3.211e+00 7.555e-01 0.000e+00 3.050e-02 1.513e-14
3.400e+00 7.555e-01 0.000e+00 3.050e-02 -1.086e-14
3.589e+00 7.555e-01 0.000e+00 3.050e-02 -8.797e-15
3.777e+00 7.555e-01 0.000e+00 3.050e-02 4.880e-15
3.966e+00 7.555e-01 0.000e+00 3.050e-02 4.651e-15
4.155e+00 7.555e-01 0.000e+00 3.050e-02 2.135e-14
4.344e+00 7.555e-01 0.000e+00 3.050e-02 1.244e-14
4.533e+00 7.555e-01 0.000e+00 3.050e-02 9.302e-15
0.000e+00 9.443e-01 0.000e+00 3.050e-02 1.317e-14
1.889e-01 9.443e-01 0.000e+00 3.050e-02 -1.217e-14
3.777e-01 9.443e-01 0.000e+00 3.050e-02 1.429e-14
5.666e-01 9.443e-01 0.000e+00 3.050e-02 8.866e-15
7.555e-01 9.443e-01 0.000e+00 3.050e-02 -1.622e-15
9.443e-01 9.443e-01 0.000e+00 3.050e-02 1.110e-14
1.133e+00 9.443e-01 0.000e+00 3.050e-02 6.629e-15
1.322e+00 9.443e-01 0.000e+00 3.050e-02 2.839e-14
1.511e+00 9.443e-01 0.000e+00 3.050e-02 1.182e-14
1.700e+00 9.443e-01 0.000e+00 3.050e-02 7.278e-15
1.889e+00 9.443e-01 0.000e+00 3.050e-02 1.708e-14
2.078e+00 9.443e-01 0.000e+00 3.050e-02 -1.246e-14
2.266e+00 9.443e-01 0.000e+00 3.050e-02 -4.930e-15
2.455e+00 9.443e-01 0.000e+00 3.050e-02 1.833e-14
2.644e+00 9.443e-01 0.000e+00 3.050e-02 4.749e-15
2.833e+00 9.443e-01 0.000e+00 3.050e-02 -1.083e-14
3.022e+00 9.443e-01 0.000e+00 3.050e-02 1.318e-14
3.211e+00 9.443e-01 0.000e+00 3.050e-02 1.513e-14
3.400e+00 9.443e-01 0.000e+00 3.050e-02 -1.086e-14
3.589e+00 9.443e-01 0.000e+00 3.050e-02 -8.797e-15
3.777e+00 9.443e-01 0.000e+00 3.050e-02 4.880e-15
3.966e+00 9.443e-01 0.000e+00 3.050e-02 4.651e-15
4.155e+00 9.443e-01 0.000e+00 3.050e-02 2.135e-14
4.344e+00 9.443e-01 0.000e+00 3.050e-02 1.244e-14
4.533e+00 9.443e-01 0.000e+00 3.050e-02 9.302e-15
0.000e+00 1.133e+00 0.000e+00 3.050e-02 1.317e-14
1.889e-01 1.133e+00 0.000e+00 3.050e-02 -1.217e-14
3.777e-01 1.133e+00 0.000e+00 3.050e-02 1.429e-14
5.666e-01 1.133e+00 0.000e+00 3.050e-02 8.866e-15
7.555e-01 1.133e+00 0.000e+00 3.050e-02 -1.622e-15
9.443e-01 1.133e+00 0.000e+00 3.050e-02 1.110e-14
1.133e+00 1.133e+00 0.000e+00 3.050e-02 6.629e-15
1.322e+00 1.133e+00 0.000e+00 3.050e-02 2.839e-14
1.511e+00 1.133e+00 0.000e+00 3.050e-02 1.182e-14
1.700e+00 1.133e+00 0.000e+00 3.050e-02 7.278e-15
1.889e+00 1.133e+00 0.000e+00 3.050e-02 1.708e-14
2.078e+00 1.133e+00 0.000e+00 3.050e-02 -1.246e-14
2.266e+00 1.133e+00 0.000e+00 3.050e-02 -4.930e-15
2.455e+00 1.133e+00 0.000e+00 3.050e-02 1.833e-14
2.644e+00 1.133e+00 0.000e+00 3.050e-02 4.749e-15
2.833e+00 1.133e+00 0.000e+00 3.050e-02 -1.083e-14
3.022e+00 1.133e+00 0.000e+00 3.050e-02 1.318e-14
3.211e+00 1.133e+00 0.000e+00 3.050e-02 1.513e-14
3.400e+00 1.133e+00 0.000e+00 3.050e-02 -1.086e-14
3.589e+00 1.133e+00 0.000e+00 3.050e-02 -8.797e-15
3.777e+00 1.133e+00 0.000e+00 3.050e-02 4.880e-15
3.966e+00 1.133e+00 0.000e+00 3.050e-02 4.651e-15
4.155e+00 1.133e+00 0.000e+00 3.050e-02 2.135e-14
4.344e+00 1.133e+00 0.000e+00 3.050e-02 1.244e-14
4.533e+00 1.133e+00 0.000e+00 3.050e-02 9.302e-15
0.000e+00 1.322e+00 0.000e+00 3.050e-02 1.317e-14
1.889e-01 1.322e+00 0.000e+00 3.050e-02 -1.217e-14
3.777e-01 1.322e+00 0.000e+00 3.050e-02 1.429e-14
5.666e-01 1.322e+00 0.000e+00 3.050e-02 8.866e-15
7.555e-01 1.322e+00 0.000e+00 3.050e-02 -1.622e-15
9.443e-01 1.322e+00 0.000e+00 3.050e-02 1.110e-14
1.133e+00 1.322e+00 0.000e+00 3.050e-02 6.629e-15
1.322e+00 1.322e+00 0.000e+00 3.050e-02 2.839e-14
1.511e+00 1.322e+00 0.000e+00 3.050e-02 1.182e-14
1.700e+00 1.322e+00 0.000e+00 3.050e-02 7.278e-15
1.889e+00 1.322e+00 0.000e+00 3.050e-02 1.708e-14
2.078e+00 1.322e+00 0.000e+00 3.050e-02 -1.246e-14
2.266e+00 1.322e+00 0.000e+00 3.050e-02 -4.930e-15
2.455e+00 1.322e+00 0.000e+00 3.050e-02 1.833e-14
2.644e+00 1.322e+00 0.000e+00 3.050e-02 4.749e-15
2.833e+00 1.322e+00 0.000e+00 3.050e-02 -1.083e-14
3.022e+00 1.322e+00 0.000e+00 3.050e-02 1.318e-14
3.211e+00 1.322e+00 0.000e+00 3.050e-02 1.513e-14
3.400e+00 1.322e+00 0.000e+00 3.050e-02 -1.086e-14
3.589e+00 1.322e+00 0.000e+00 3.050e-02 -8.797e-15
3.777e+00 1.322e+00 0.000e+00 3.050e-02 4.880e-15
3.966e+00 1.322e+00 0.000e+00 3.050e-02 4.651e-15
4.155e+00 1.322e+00 0.000e+00 3.050e-02 2.135e-14
4.344e+00 1.322e+00 0.000e+00 3.050e-02 1.244e-14
4.533e+00 1.322e+00 0.000e+00 3.050e-02 9.302e-15
0.000e+00 1.511e+00 0.000e+00 3.050e-02 1.317e-14
1.889e-01 1.511e+00 0.000e+00 3.050e-02 -1.217e-14
3.777e-01 1.511e+00 0.000e+00 3.050e-02 1.429e-14
5.666e-01 1.511e+00 0.000e+00 3.050e-02 8.866e-15
7.555e-01 1.511e+00 0.000e+00 3.050e-02 -1.622e-15
9.443e-01 1.511e+00 0.000e+00 3.050e-02 1.110e-14
1.133e+00 1.511e+00 0.000e+00 3.050e-02 6.629e-15
1.322e+00 1.511e+00 0.000e+00 3.050e-02 2.839e-14
1.511e+00 1.511e+00 0.000e+00 3.050e-02 1.182e-14
1.700e+00 1.511e+00 0.000e+00 3.050e-02 7.278e-15
1.889e+00 1.511e+00 0.000e+00 3.050e-02 1.708e-14
2.078e+00 1.511e+00 0.000e+00 3.050e-02 -1.246e-14
2.266e+00 1.511e+00 0.000e+00 3.050e-02 -4.930e-15
2.455e+00 1.511e+00 0.000e+00 3.050e-02 1.833e-14
2.644e+00 1.511e+00 0.000e+00 3.050e-02 4.749e-15
2.833e+00 1.511e+00 0.000e+00 3.050e-02 -1.083e-14
3.022e+00 1.511e+00 0.000e+00 3.050e-02 1.318e-14
3.211e+00 1.511e+00 0.000e+00 3.050e-02 1.513e-14
3.400e+00 1.511e+00 0.000e+00 3.050e-02 -1.086e-14
3.589e+00 1.511e+00 0.000e+00 3.050e-02 -8.797e-15
3.777e+00 1.511e+00 0.000e+00 3.050e-02 4.880e-15
3.966e+00 1.511e+00 0.000e+00 3.050e-02 4.651e-15
4.155e+00 1.511e+00 0.000e+00 3.050e-02 2.135e-14
4.344e+00 1.511e+00 0.000e+00 3.050e-02 1.244e-14
4.533e+00 1.511e+00 0.000e+00 3.050e-02 9.302e-15
0.000e+00 1.700e+00 0.000e+00 3.050e-02 1.317e-14
1.889e-01 1.700e+00 0.000e+00 3.050e-02 -1.217e-14
3.777e-01 1.700e+00 0.000e+00 3.050e-02 1.429e-14
5.666e-01 1.700e+00 0.000e+00 3.050e-02 8.866e-15
7.555e-01 1.700e+00 0.000e+00 3.050e-02 -1.622e-15
9.443e-01 1.700e+00 0.000e+00 3.050e-02 1.110e-14
1.133e+00 1.700e+00 0.000e+00 3.050e-02 6.629e-15
1.322e+00 1.700e+00 0.000e+00 3.050e-02 2.839e-14
1.511e+00 1.700e+00 0.000e+00 3.050e-02 1.182e-14
1.700e+00 1.700e+00 0.000e+00 3.050e-02 7.278e-15
1.889e+00 1.700e+00 0.000e+00 3.050e-02 1.708e-14
2.078e+00 1.700e+00 0.000e+00 3.050e-02 -1.246e-14
2.266e+00 1.700e+00 0.000e+00 3.050e-02 -4.930e-15
2.455e+00 1.700e+00 0.000e+00 3.050e-02 1.833e-14
2.644e+00 1.700e+00 0.000e+00 3.050e-02 4.749e-15
2.833e+00 1.700e+00 0.000e+00 3.050e-02 -1.083e-14
3.022e+00 1.700e+00 0.000e+00 3.050e-02 1.318e-14
3.211e+00 1.700e+00 0.000e+00 3.050e-02 1.513e-14
3.400e+00 1.700e+00 0.000e+00 3.050e-02 -1.086e-14
3.589e+00 1.700e+00 0.000e+00 3.050e-02 -8.797e-15
3.777e+00 1.700e+00 0.000e+00 3.050e-02 4.880e-15
3.966e+00 1.700e+00 0.000e+00 3.050e-02 4.651e-15
4.155e+00 1.700e+00 0.000e+00 3.050e-02 2.135e-14
4.344e+00 1.700e+00 0.000e+00 3.050e-02 1.244e-14
4.533e+00 1.700e+00 0.000e+00 3.050e-02 9.302e-15
0.000e+00 1.889e+00 0.000e+00 3.050e-02 1.317e-14
1.889e-01 1.889e+00 0.000e+00 3.050e-02 -1.217e-14
3.777e-01 1.889e+00 0.000e+00 3.050e-02 1.429e-14
5.666e-01 1.889e+00 0.000e+00 3.050e-02 8.866e-15
7.555e-01 1.889e+00 0.000e+00 3.050e-02 -1.622e-15
9.443e-01 1.889e+00 0.000e+00 3.050e-02 1.110e-14
1.133e+00 1.889e+00 0.000e+00 3.050e-02 6.629e-15
1.322e+00 1.889e+00 0.000e+00 3.050e-02 2.839e-14
1.511e+00 1.889e+00 0.000e+00 3.050e-02 1.182e-14
1.700e+00 1.889e+00 0.000e+00 3.050e-02 7.278e-15
1.889e+00 1.889e+00 0.000e+00 3.050e-02 1.708e-14
2.078e+00 1.889e+00 0.000e+00 3.050e-02 -1.246e-14
2.266e+00 1.889e+00 0.000e+00 3.050e-02 -4.930e-15
2.455e+00 1.889e+00 0.000e+00 3.050e-02 1.833e-14
2.644e+00 1.889e+00 0.000e+00 3.050e-02 4.749e-15
2.833e+00 1.889e+00 0.000e+00 3.050e-02 -1.083e-14
3.022e+00 1.889e+00 0.000e+00 3.050e-02 1.318e-14
3.211e+00 1.889e+00 0.000e+00 3.050e-02 1.513e-14
3.400e+00 1.889e+00 0.000e+00 3.050e-02 -1.086e-14
3.589e+00 1.889e+00 0.000e+00 3.050e-02 -8.797e-15
3.777e+00 1.889e+00 0.000e+00 3.050e-02 4.880e-15
3.966e+00 1.889e+00 0.000e+00 3.050e-02 4.651e-15
4.155e+00 1.889e+00 0.000e+00 3.050e-02 2.135e-14
4.344e+00 1.889e+00 0.000e+00 3.050e-02 1.244e-14
4.533e+00 1.889e+00 0.000e+00 3.050e-02 9.302e-15
0.000e+00 2.078e+00 0.000e+00 3.050e-02 1.317e-14
1.889e-01 2.078e+00 0.000e+00 3.050e-02 -1.217e-14
3.777e-01 2.078e+00 0.000e+00 3.050e-02 1.429e-14
5.666e-01 2.078e+00 0.000e+00 3.050e-02 8.866e-15
7.555e-01 2.078e+00 0.000e+00 3.050e-02 -1.622e-15
9.443e-01 2.078e+00 0.000e+00 3.050e-02 1.110e-14
1.133e+00 2.078e+00 0.000e+00 3.050e-02 6.629e-15
1.322e+00 2.078e+00 0.000e+00 3.050e-02 2.839e-14
1.511e+00 2.078e+00 0.000e+00 3.050e-02 1.182e-14
1.700e+00 2.078e+00 0.000e+00 3.050e-02 7.278e-15
1.889e+00 2.078e+00 0.000e+00 3.050e-02 1.708e-14
2.078e+00 2.078e+00 0.000e+00 3.050e-02 -1.246e-14
2.266e+00 2.078e+00 0.000e+00 3.050e-02 -4.930e-15
2.455e+00 2.078e+00 0.000e+00 3.050e-02 1.833e-14
2.644e+00 2.078e+00 0.000e+00 3.050e-02 4.749e-15
2.833e+00 2.078e+00 0.000e+00 3.050e-02 -1.083e-14
3.022e+00 2.078e+00 0.000e+00 3.050e-02 1.318e-14
3.211e+00 2.078e+00 0.000e+00 3.050e-02 1.513e-14
3.400e+00 2.078e+00 0.000e+00 3.050e-02 -1.086e-14
3.589e+00 2.078e+00 0.000e+00 3.050e-02 -8.797e-15
3.777e+00 2.078e+00 0.000e+00 3.050e-02 4.880e-15
3.966e+00 2.078e+00 0.000e+00 3.050e-02 4.651e-15
4.155e+00 2.078e+00 0.000e+00 3.050e-02 2.135e-14
4.344e+00 2.078e+00 0.000e+00 3.050e-02 1.244e-14
4.533e+00 2.078e+00 0.000e+00 3.050e-02 9.302e-15
0.000e+00 2.266e+00 0.000e+00 3.050e-02 1.317e-14
1.889e-01 2.266e+00 0.000e+00 3.050e-02 -1.217e-14
3.777e-01 2.266e+00 0.000e+00 3.050e-02 1.429e-14
5.666e-01 2.266e+00 0.000e+00 3.050e-02 8.866e-15
7.555e-01 2.266e+00 0.000e+00 3.050e-02 -1.622e-15
9.443e-01 2.266e+00 0.000e+00 3.050e-02 1.110e-14
1.133e+00 2.266e+00 0.000e+00 3.050e-02 6.629e-15
1.322e+00 2.266e+00 0.000e+00 3.050e-02 2.839e-14
1.511e+00 2.266e+00 0.000e+00 3.050e-02 1.182e-14
1.700e+00 2.266e+00 0.000e+00 3.050e-02 7.278e-15
1.889e+00 2.266e+00 0.000e+00 3.050e-02 1.708e-14
2.078e+00 2.266e+00 0.000e+00 3.050e-02 -1.246e-14
2.266e+00 2.266e+00 0.000e+00 3.050e-02 -4.930e-15
2.455e+00 2.266e+00 0.000e+00 3.050e-02 1.833e-14
2.644e+00 2.266e+00 0.000e+00 3.050e-02 4.749e-15
2.833e+00 2.266e+00 0.000e+00 3.050e-02 -1.083e-14
3.022e+00 2.266e+00 0.000e+00 3.050e-02 1.318e-14
3.211e+00 2.266e+00 0.000e+00 3.050e-02 1.513e-14
3.400e+00 2.266e+00 0.000e+00 3.050e-02 -1.086e-14
3.589e+00 2.266e+00 0.000e+00 3.050e-02 -8.797e-15
3.777e+00 2.266e+00 0.000e+00 3.050e-02 4.880e-15
3.966e+00 2.266e+00 0.000e+00 3.050e-02 4.651e-15
4.155e+00 2.266e+00 0.000e+00 3.050e-02 2.135e-14
4.344e+00 2.266e+00 0.000e+00 3.050e-02 1.244e-14
4.533e+00 2.266e+00 0.000e+00 3.050e-02 9.302e-15
0.000e+00 2.455e+00 0.000e+00 3.050e-02 1.317e-14
1.889e-01 2.455e+00 0.000e+00 3.050e-02 -1.217e-14
3.777e-01 2.455e+00 0.000e+00 3.050e-02 1.429e-14
5.666e-01 2.455e+00 0.000e+00 3.050e-02 8.866e-15
7.555e-01 2.455e+00 0.000e+00 3.050e-02 -1.622e-15
9.443e-01 2.455e+00 0.000e+00 3.050e-02 1.110e-14
1.133e+00 2.455e+00 0.000e+00 3.050e-02 6.629e-15
1.322e+00 2.455e+00 0.000e+00 3.050e-02 2.839e-14
1.511e+00 2.455e+00 0.000e+00 3.050e-02 1.182e-14
1.700e+00 2.455e+00 0.000e+00 3.050e-02 7.278e-15
1.889e+00 2.455e+00 0.000e+00 3.050e-02 1.708e-14
2.078e+00 2.455e+00 0.000e+00 3.050e-02 -1.246e-14
2.266e+00 2.455e+00 0.000e+00 3.050e-02 -4.930e-15
2.455e+00 2.455e+00 0.000e+00 3.050e-02 1.833e-14
2.644e+00 2.455e+00 0.000e+00 3.050e-02 4.749e-15
2.833e+00 2.455e+00 0.000e+00 3.050e-02 -1.083e-14
3.022e+00 2.455e+00 0.000e+00 3.050e-02 1.318e-14
3.211e+00 2.455e+00 0.000e+00 3.050e-02 1.513e-14
3.400e+00 2.455e+00 0.000e+00 3.050e-02 -1.086e-14
3.589e+00 2.455e+00 0.000e+00 3.050e-02 -8.797e-15
3.777e+00 2.455e+00 0.000e+00 3.050e-02 4.880e-15
3.966e+00 2.455e+00 0.000e+00 3.050e-02 4.651e-15
4.155e+00 2.455e+00 0.000e+00 3.050e-02 2.135e-14
4.344e+00 2.455e+00 0.000e+00 3.050e-02 1.244e-14
4.533e+00 2.455e+00 0.000e+00 3.050e-02 9.302e-15
0.000e+00 2.644e+00 0.000e+00 3.050e-02 1.317e-14
1.889e-01 2.644e+00 0.000e+00 3.050e-02 -1.217e-14
3.777e-01 2.644e+00 0.000e+00 3.050e-02 1.429e-14
5.666e-01 2.644e+00 0.000e+00 3.050e-02 8.866e-15
7.555e-01 2.644e+00 0.000e+00 3.050e-02 -1.622e-15
9.443e-01 2.644e+00 0.000e+00 3.050e-02 1.110e-14
1.133e+00 2.644e+00 0.000e+00 3.050e-02 6.629e-15
1.322e+00 2.644e+00 0.000e+00 3.050e-02 2.839e-14
1.511e+00 2.644e+00 0.000e+00 3.050e-02 1.182e-14
1.700e+00 2.644e+00 0.000e+00 3.050e-02 7.278e-15
1.889e+00 2.644e+00 0.000e+00 3.050e-02 1.708e-14
2.078e+00 2.644e+00 0.000e+00 3.050e-02 -1.246e-14
2.266e+00 2.644e+00 0.000e+00 3.050e-02 -4.930e-15
2.455e+00 2.644e+00 0.000e+00 3.050e-02 1.833e-14
2.644e+00 2.644e+00 0.000e+00 3.050e-02 4.749e-15
2.833e+00 2.644e+00 0.000e+00 3.050e-02 -1.083e-14
3.022e+00 2.644e+00 0.000e+00 3.050e-02 1.318e-14
3.211e+00 2.644e+00 0.000e+00 3.050e-02 1.513e-14
3.400e+00 2.644e+00 0.000e+00 3.050e-02 -1.086e-14
3.589e+00 2.644e+00 0.000e+00 3.050e-02 -8.797e-15
3.777e+00 2.644e+00 0.000e+00 3.050e-02 4.880e-15
3.966e+00 2.644e+00 0.000e+00 3.050e-02 4.651e-15
4.155e+00 2.644e+00 0.000e+00 3.050e-02 2.135e-14
4.344e+00 2.644e+00 0.000e+00 3.050e-02 1.244e-14
4.533e+00 2.644e+00 0.000e+00 3.050e-02 9.302e-15
0.000e+00 2.833e+00 0.000e+00 3.050e-02 1.317e-14
1.889e-01 2.833e+00 0.000e+00 3.050e-02 -1.217e-14
3.777e-01 2.833e+00 0.000e+00 3.050e-02 1.429e-14
5.666e-01 2.833e+00 0.000e+00 3.050e-02 8.866e-15
7.555e-01 2.833e+00 0.000e+00 3.050e-02 -1.622e-15
9.443e-01 2.833e+00 0.000e+00 3.050e-02 1.110e-14
1.133e+00 2.833e+00 0.000e+00 3.050e-02 6.629e-15
1.322e+00 2.833e+00 0.000e+00 3.050e-02 2.839e-14
1.511e+00 2.833e+00 0.000e+00 3.050e-02 1.182e-14
1.700e+00 2.833e+00 0.000e+00 3.050e-02 7.278e-15
1.889e+00 2.833e+00 0.000e+00 3.050e-02 1.708e-14
2.078e+00 2.833e+00 0.000e+00 3.050e-02 -1.246e-14
2.266e+00 2.833e+00 0.000e+00 3.050e-02 -4.930e-15
2.455e+00 2.833e+00 0.000e+00 3.050e-02 1.833e-14
2.644e+00 2.833e+00 0.000e+00 3.050e-02 4.749e-15
2.833e+00 2.833e+00 0.000e+00 3.050e-02 -1.083e-14
3.022e+00 2.833e+00 0.000e+00 3.050e-02 1.318e-14
3.211e+00 2.833e+00 0.000e+00 3.050e-02 1.513e-14
3.400e+00 2.833e+00 0.000e+00 3.050e-02 -1.086e-14
3.589e+00 2.833e+00 0.000e+00 3.050e-02 -8.797e-15
3.777e+00 2.833e+00 0.000e+00 3.050e-02 4.880e-15
3.966e+00 2.833e+00 0.000e+00 3.050e-02 4.651e-15
4.155e+00 2.833e+00 0.000e+00 3.050e-02 2.135e-14
4.344e+00 2.833e+00 0.000e+00 3.050e-02 1.244e-14
4.533e+00 2.833e+00 0.000e+00 3.050e-02 9.302e-15
0.000e+00 3.022e+00 0.000e+00 3.050e-02 1.317e-14
1.889e-01 3.022e+00 0.000e+00 3.050e-02 -1.217e-14
3.777e-01 3.022e+00 0.000e+00 3.050e-02 1.429e-14
5.666e-01 3.022e+00 0.000e+00 3.050e-02 8.866e-15
7.555e-01 3.022e+00 0.000e+00 3.050e-02 -1.622e-15
9.443e-01 3.022e+00 0.000e+00 3.050e-02 1.110e-14
1.133e+00 3.022e+00 0.000e+00 3.050e-02 6.629e-15
1.322e+00 3.022e+00 0.000e+00 3.050e-02 2.839e-14
1.511e+00 3.022e+00 0.000e+00 3.050e-02 1.182e-14
1.700e+00 3.022e+00 0.000e+00 3.050e-02 7.278e-15
1.889e+00 3.022e+00 0.000e+00 3.050e-02 1.708e-14
2.078e+00 3.022e+00 0.000e+00 3.050e-02 -1.246e-14
2.266e+00 3.022e+00 0.000e+00 3.050e-02 -4.930e-15
2.455e+00 3.022e+00 0.000e+00 3.050e-02 1.833e-14
2.644e+00 3.022e+00 0.000e+00 3.050e-02 4.749e-15
2.833e+00 3.022e+00 0.000e+00 3.050e-02 -1.083e-14
3.022e+00 3.022e+00 0.000e+00 3.050e-02 1.318e-14
3.211e+00 3.022e+00 0.000e+00 3.050e-02 1.513e-14
3.400e+00 3.022e+00 0.000e+00 3.050e-02 -1.086e-14
3.589e+00 3.022e+00 0.000e+00 3.050e-02 -8.797e-15
3.777e+00 3.022e+00 0.000e+00 3.050e-02 4.880e-15
3.966e+00 3.022e+00 0.000e+00 3.050e-02 4.651e-15
4.155e+00 3.022e+00 0.000e+00 3.050e-02 2.135e-14
4.344e+00 3.022e+00 0.000e+00 3.050e-02 1.244e-14
4.533e+00 3.022e+00 0.000e+00 3.050e-02 9.302e-15
0.000e+00 3.211e+00 0.000e+00 3.050e-02 1.317e-14
1.889e-01 3.211e+00 0.000e+00 3.050e-02 -1.217e-14
3.777e-01 3.211e+00 0.000e+00 3.050e-02 1.429e-14
5.666e-01 3.211e+00 0.000e+00 3.050e-02 8.866e-15
7.555e-01 3.211e+00 0.000e+00 3.050e-02 -1.622e-15
9.443e-01 3.211e+00 0.000e+00 3.050e-02 1.110e-14
1.133e+00 3.211e+00 0.000e+00 3.050e-02 6.629e-15
1.322e+00 3.211e+00 0.000e+00 3.050e-02 2.839e-14
1.511e+00 3.211e+00 0.000e+00 3.050e-02 1.182e-14
1.700e+00 3.211e+00 0.000e+00 3.050e-02 7.278e-15
1.889e+00 3.211e+00 0.000e+00 3.050e-02 1.708e-14
2.078e+00 3.211e+00 0.000e+00 3.050e-02 -1.246e-14
2.266e+00 3.211e+00 0.000e+00 3.050e-02 -4.930e-15
2.455e+00 3.211e+00 0.000e+00 3.050e-02 1.833e-14
2.644e+00 3.211e+00 0.000e+00 3.050e-02 4.749e-15
2.833e+00 3.211e+00 0.000e+00 3.050e-02 -1.083e-14
3.022e+00 3.211e+00 0.000e+00 3.050e-02 1.318e-14
3.211e+00 3.211e+00 0.000e+00 3.050e-02 1.513e-14
3.400e+00 3.211e+00 0.000e+00 3.050e-02 -1.086e-14
3.589e+00 3.211e+00 0.000e+00 3.050e-02 -8.797e-15
3.777e+00 3.211e+00 0.000e+00 3.050e-02 4.880e-15
3.966e+00 3.211e+00 0.000e+00 3.050e-02 4.651e-15
4.155e+00 3.211e+00 0.000e+00 3.050e-02 2.135e-14
4.344e+00 3.211e+00 0.000e+00 3.050e-02 1.244e-14
4.533e+00 3.211e+00 0.000e+00 3.050e-02 9.302e-15
0.000e+00 3.400e+00 0.000e+00 3.050e-02 1.317e-14
1.889e-01 3.400e+00 0.000e+00 3.050e-02 -1.217e-14
3.777e-01 3.400e+00 0.000e+00 3.050e-02 1.429e-14
5.666e-01 3.400e+00 0.000e+00 3.050e-02 8.866e-15
7.555e-01 3.400e+00 0.000e+00 3.050e-02 -1.622e-15
9.443e-01 3.400e+00 0.000e+00 3.050e-02 1.110e-14
1.133e+00 3.400e+00 0.000e+00 3.050e-02 6.629e-15
1.322e+00 3.400e+00 0.000e+00 3.050e-02 2.839e-14
1.511e+00 3.400e+00 0.000e+00 3.050e-02 1.182e-14
1.700e+00 3.400e+00 0.000e+00 3.050e-02 7.278e-15
1.889e+00 3.400e+00 0.000e+00 3.050e-02 1.708e-14
2.078e+00 3.400e+00 0.000e+00 3.050e-02 -1.246e-14
2.266e+00 3.400e+00 0.000e+00 3.050e-02 -4.930e-15
2.455e+00 3.400e+00 0.000e+00 3.050e-02 1.833e-14
2.644e+00 3.400e+00 0.000e+00 3.050e-02 4.749e-15
2.833e+00 3.400e+00 0.000e+00 3.050e-02 -1.083e-14
3.022e+00 3.400e+00 0.000e+00 3.050e-02 1.318e-14
3.211e+00 3.400e+00 0.000e+00 3.050e-02 1.513e-14
3.400e+00 3.400e+00 0.000e+00 3.050e-02 -1.086e-14
3.589e+00 3.400e+00 0.000e+00 3.050e-02 -8.797e-15
3.777e+00 3.400e+00 0.000e+00 3.050e-02 4.880e-15
3.966e+00 3.400e+00 0.000e+00 3.050e-02 4.651e-15
4.155e+00 3.400e+00 0.000e+00 3.050e-02 2.135e-14
4.344e+00 3.400e+00 0.000e+00 3.050e-02 1.244e-14
4.533e+00 3.400e+00 0.000e+00 3.050e-02 9.302e-15
0.000e+00 3.589e+00 0.000e+00 3.050e-02 1.317e-14
1.889e-01 3.589e+00 0.000e+00 3.050e-02 -1.217e-14
3.777e-01 3.589e+00 0.000e+00 3.050e-02 1.429e-14
5.666e-01 3.589e+00 0.000e+00 3.050e-02 8.866e-15
7.555e-01 3.589e+00 0.000e+00 3.050e-02 -1.622e-15
9.443e-01 3.589e+00 0.000e+00 3.050e-02 1.110e-14
1.133e+00 3.589e+00 0.000e+00 3.050e-02 6.629e-15
1.322e+00 3.589e+00 0.000e+00 3.050e-02 2.839e-14
1.511e+00 3.589e+00 0.000e+00 3.050e-02 1.182e-14
1.700e+00 3.589e+00 0.000e+00 3.050e-02 7.278e-15
1.889e+00 3.589e+00 0.000e+00 3.050e-02 1.708e-14
2.078e+00 3.589e+00 0.000e+00 3.050e-02 -1.246e-14
2.266e+00 3.589e+00 0.000e+00 3.050e-02 -4.930e-15
2.455e+00 3.589e+00 0.000e+00 3.050e-02 1.833e-14
2.644e+00 3.589e+00 0.000e+00 3.050e-02 4.749e-15
2.833e+00 3.589e+00 0.000e+00 3.050e-02 -1.083e-14
3.022e+00 3.589e+00 0.000e+00 3.050e-02 1.318e-14
3.211e+00 3.589e+00 0.000e+00 3.050e-02 1.513e-14
3.400e+00 3.589e+00 0.000e+00 3.050e-02 -1.086e-14
3.589e+00 3.589e+00 0.000e+00 3.050e-02 -8.797e-15
3.777e+00 3.589e+00 0.000e+00 3.050e-02 4.880e-15
3.966e+00 3.589e+00 0.000e+00 3.050e-02 4.651e-15
4.155e+00 3.589e+00 0.000e+00 3.050e-02 2.135e-14
4.344e+00 3.589e+00 0.000e+00 3.050e-02 1.244e-14
4.533e+00 3.589e+00 0.000e+00 3.050e-02 9.302e-15
0.000e+00 3.777e+00 0.000e+00 3.050e-02 1.317e-14
1.889e-01 3.777e+00 0.000e+00 3.050e-02 -1.217e-14
3.777e-01 3.777e+00 0.000e+00 3.050e-02 1.429e-14
5.666e-01 3.777e+00 0.000e+00 3.050e-02 8.866e-15
7.555e-01 3.777e+00 0.000e+00 3.050e-02 -1.622e-15
9.443e-01 3.777e+00 0.000e+00 3.050e-02 1.110e-14
1.133e+00 3.777e+00 0.000e+00 3.050e-02 6.629e-15
1.322e+00 3.777e+00 0.000e+00 3.050e-02 2.839e-14
1.511e+00 3.777e+00 0.000e+00 3.050e-02 1.182e-14
1.700e+00 3.777e+00 0.000e+00 3.050e-02 7.278e-15
1.889e+00 3.777e+00 0.000e+00 3.050e-02 1.708e-14
2.078e+00 3.777e+00 0.000e+00 3.050e-02 -1.246e-14
2.266e+00 3.777e+00 0.000e+00 3.050e-02 -4.930e-15
2.455e+00 3.777e+00 0.000e+00 3.050e-02 1.833e-14
2.644e+00 3.777e+00 0.000e+00 3.050e-02 4.749e-15
2.833e+00 3.777e+00 0.000e+00 3.050e-02 -1.083e-14
3.022e+00 3.777e+00 0.000e+00 3.050e-02 1.318e-14
3.211e+00 3.777e+00 0.000e+00 3.050e-02 1.513e-14
3.400e+00 3.777e+00 0.000e+00 3.050e-02 -1.086e-14
3.589e+00 3.777e+00 0.000e+00 3.050e-02 -8.797e-15
3.777e+00 3.777e+00 0.000e+00 3.050e-02 4.880e-15
3.966e+00 3.777e+00 0.000e+00 3.050e-02 4.651e-15
4.155e+00 3.777e+00 0.000e+00 3.050e-02 2.135e-14
4.344e+00 3.777e+00 0.000e+00 3.050e-02 1.244e-14
4.533e+00 3.777e+00 0.000e+00 3.050e-02 9.302e-15
0.000e+00 3.966e+00 0.000e+00 3.050e-02 1.317e-14
1.889e-01 3.966e+00 0.000e+00 3.050e-02 -1.217e-14
3.777e-01 3.966e+00 0.000e+00 3.050e-02 1.429e-14
5.666e-01 3.966e+00 0.000e+00 3.050e-02 8.866e-15
7.555e-01 3.966e+00 0.000e+00 3.050e-02 -1.622e-15
9.443e-01 3.966e+00 0.000e+00 3.050e-02 1.110e-14
1.133e+00 3.966e+00 0.000e+00 3.050e-02 6.629e-15
1.322e+00 3.966e+00 0.000e+00 3.050e-02 2.839e-14
1.511e+00 3.966e+00 0.000e+00 3.050e-02 1.182e-14
1.700e+00 3.966e+00 0.000e+00 3.050e-02 7.278e-15
1.889e+00 3.966e+00 0.000e+00 3.050e-02 1.708e-14
2.078e+00 3.966e+00 0.000e+00 3.050e-02 -1.246e-14
2.266e+00 3.966e+00 0.000e+00 3.050e-02 -4.930e-15
2.455e+00 3.966e+00 0.000e+00 3.050e-02 1.833e-14
2.644e+00 3.966e+00 0.000e+00 3.050e-02 4.749e-15
2.833e+00 3.966e+00 0.000e+00 3.050e-02 -1.083e-14
3.022e+00 3.966e+00 0.000e+00 3.050e-02 1.318e-14
3.211e+00 3.966e+00 0.000e+00 3.050e-02 1.513e-14
3.400e+00 3.966e+00 0.000e+00 3.050e-02 -1.086e-14
3.589e+00 3.966e+00 0.000e+00 3.050e-02 -8.797e-15
3.777e+00 3.966e+00 0.000e+00 3.050e-02 4.880e-15
3.966e+00 3.966e+00 0.000e+00 3.050e-02 4.651e-15
4.155e+00 3.966e+00 0.000e+00 3.050e-02 2.135e-14
4.344e+00 3.966e+00 0.000e+00 3.050e-02 1.244e-14
4.533e+00 3.966e+00 0.000e+00 3.050e-02 9.302e-15
0.000e+00 4.155e+00 0.000e+00 3.050e-02 1.317e-14
1.889e-01 4.155e+00 0.000e+00 3.050e-02 -1.217e-14
3.777e-01 4.155e+00 0.000e+00 3.050e-02 1.429e-14
5.666e-01 4.155e+00 0.000e+00 3.050e-02 8.866e-15
7.555e-01 4.155e+00 0.000e+00 3.050e-02 -1.622e-15
9.443e-01 4.155e+00 0.000e+00 3.050e-02 1.110e-14
1.133e+00 4.155e+00 0.000e+00 3.050e-02 6.629e-15
1.322e+00 4.155e+00 0.000e+00 3.050e-02 2.839e-14
1.511e+00 4.155e+00 0.000e+00 3.050e-02 1.182e-14
1.700e+00 4.155e+00 0.000e+00 3.050e-02 7.278e-15
1.889e+00 4.155e+00 0.000e+00 3.050e-02 1.708e-14
2.078e+00 4.155e+00 0.000e+00 3.050e-02 -1.246e-14
2.266e+00 4.155e+00 0.000e+00 3.050e-02 -4.930e-15
2.455e+00 4.155e+00 0.000e+00 3.050e-02 1.833e-14
2.644e+00 4.155e+00 0.000e+00 3.050e-02 4.749e-15
2.833e+00 4.155e+00 0.000e+00 3.050e-02 -1.083e-14
3.022e+00 4.155e+00 0.000e+00 3.050e-02 1.318e-14
3.211e+00 4.155e+00 0.000e+00 3.050e-02 1.513e-14
3.400e+00 4.155e+00 0.000e+00 3.050e-02 -1.086e-14
3.589e+00 4.155e+00 0.000e+00 3.050e-02 -8.797e-15
3.777e+00 4.155e+00 0.000e+00 3.050e-02 4.880e-15
3.966e+00 4.155e+00 0.000e+00 3.050e-02 4.651e-15
4.155e+00 4.155e+00 0.000e+00 3.050e-02 2.135e-14
4.344e+00 4.155e+00 0.000e+00 3.050e-02 1.244e-14
4.533e+00 4.155e+00 0.000e+00 3.050e-02 9.302e-15
0.000e+00 4.344e+00 0.000e+00 3.050e-02 1.317e-14
1.889e-01 4.344e+00 0.000e+00 3.050e-02 -1.217e-14
3.777e-01 4.344e+00 0.000e+00 3.050e-02 1.429e-14
5.666e-01 4.344e+00 0.000e+00 3.050e-02 8.866e-15
7.555e-01 4.344e+00 0.000e+00 3.050e-02 -1.622e-15
9.443e-01 4.344e+00 0.000e+00 3.050e-02 1.110e-14
1.133e+00 4.344e+00 0.000e+00 3.050e-02 6.629e-15
1.322e+00 4.344e+00 0.000e+00 3.050e-02 2.839e-14
1.511e+00 4.344e+00 0.000e+00 3.050e-02 1.182e-14
1.700e+00 4.344e+00 0.000e+00 3.050e-02 7.278e-15
1.889e+00 4.344e+00 0.000e+00 3.050e-02 1.708e-14
2.078e+00 4.344e+00 0.000e+00 3.050e-02 -1.246e-14
2.266e+00 4.344e+00 0.000e+00 3.050e-02 -4.930e-15
2.455e+00 4.344e+00 0.000e+00 3.050e-02 1.833e-14
2.644e+00 4.344e+00 0.000e+00 3.050e-02 4.749e-15
2.833e+00 4.344e+00 0.000e+00 3.050e-02 -1.083e-14
3.022e+00 4.344e+00 0.000e+00 3.050e-02 1.318e-14
3.211e+00 4.344e+00 0.000e+00 3.050e-02 1.513e-14
3.400e+00 4.344e+00 0.000e+00 3.050e-02 -1.086e-14