TITLE = "wabm"
VARIABLES = "X", "Y", "Z", "Real", "Imaginary"
ZONE I=25, J=25, K=75, F=POINT
0.000e+00 0.000e+00 0.000e+00 2.778e-04 1.953e-15
1.889e-01 0.000e+00 0.000e+00 2.751e-04 8.775e-15
3.777e-01 0.000e+00 0.000e+00 2.673e-04 5.492e-15
5.666e-01 0.000e+00 0.000e+00 2.551e-04 7.070e-15
7.555e-01 0.000e+00 0.000e+00 2.397e-04 -1.721e-14
9.443e-01 0.000e+00 0.000e+00 2.223e-04 -6.793e-15
1.133e+00 0.000e+00 0.000e+00 2.040e-04 -4.068e-15
1.322e+00 0.000e+00 0.000e+00 1.859e-04 -1.005e-14
1.511e+00 0.000e+00 0.000e+00 1.691e-04 -9.130e-15
1.700e+00 0.000e+00 0.000e+00 1.543e-04 -1.365e-14
1.889e+00 0.000e+00 0.000e+00 1.423e-04 -9.121e-15
2.078e+00 0.000e+00 0.000e+00 1.339e-04 -8.265e-15
2.266e+00 0.000e+00 0.000e+00 1.295e-04 -3.199e-15
2.455e+00 0.000e+00 0.000e+00 1.295e-04 -1.078e-14
2.644e+00 0.000e+00 0.000e+00 1.339e-04 1.571e-15
2.833e+00 0.000e+00 0.000e+00 1.423e-04 -1.558e-15
3.022e+00 0.000e+00 0.000e+00 1.543e-04 2.319e-15
3.211e+00 0.000e+00 0.000e+00 1.691e-04 -2.856e-15
3.400e+00 0.000e+00 0.000e+00 1.859e-04 5.516e-15
3.589e+00 0.000e+00 0.000e+00 2.040e-04 6.652e-15
3.777e+00 0.000e+00 0.000e+00 2.223e-04 4.385e-15
3.966e+00 0.000e+00 0.000e+00 2.397e-04 6.506e-15
4.155e+00 0.000e+00 0.000e+00 2.551e-04 5.705e-15
4.344e+00 0.000e+00 0.000e+00 2.673e-04 1.442e-14
4.533e+00 0.000e+00 0.000e+00 2.751e-04 6.062e-15
0.000e+00 1.889e-01 0.000e+00 2.778e-04 1.953e-15
1.889e-01 1.889e-01 0.000e+00 2.751e-04 8.775e-15
3.777e-01 1.889e-01 0.000e+00 2.673e-04 5.492e-15
5.666e-01 1.889e-01 0.000e+00 2.551e-04 7.070e-15
7.555e-01 1.889e-01 0.000e+00 2.397e-04 -1.721e-14
9.443e-01 1.889e-01 0.000e+00 2.223e-04 -6.793e-15
1.133e+00 1.889e-01 0.000e+00 2.040e-04 -4.068e-15
1.322e+00 1.889e-01 0.000e+00 1.859e-04 -1.005e-14
1.511e+00 1.889e-01 0.000e+00 1.691e-04 -9.130e-15
1.700e+00 1.889e-01 0.000e+00 1.543e-04 -1.365e-14
1.889e+00 1.889e-01 0.000e+00 1.423e-04 -9.121e-15
2.078e+00 1.889e-01 0.000e+00 1.339e-04 -8.265e-15
2.266e+00 1.889e-01 0.000e+00 1.295e-04 -3.199e-15
2.455e+00 1.889e-01 0.000e+00 1.295e-04 -1.078e-14
2.644e+00 1.889e-01 0.000e+00 1.339e-04 1.571e-15
2.833e+00 1.889e-01 0.000e+00 1.423e-04 -1.558e-15
3.022e+00 1.889e-01 0.000e+00 1.543e-04 2.319e-15
3.211e+00 1.889e-01 0.000e+00 1.691e-04 -2.856e-15
3.400e+00 1.889e-01 0.000e+00 1.859e-04 5.516e-15
3.589e+00 1.889e-01 0.000e+00 2.040e-04 6.652e-15
3.777e+00 1.889e-01 0.000e+00 2.223e-04 4.385e-15
3.966e+00 1.889e-01 0.000e+00 2.397e-04 6.506e-15
4.155e+00 1.889e-01 0.000e+00 2.551e-04 5.705e-15
4.344e+00 1.889e-01 0.000e+00 2.673e-04 1.442e-14
4.533e+00 1.889e-01 0.000e+00 2.751e-04 6.062e-15
0.000e+00 3.777e-01 0.000e+00 2.778e-04 1.953e-15
1.889e-01 3.777e-01 0.000e+00 2.751e-04 8.775e-15
3.777e-01 3.777e-01 0.000e+00 2.673e-04 5.492e-15
5.666e-01 3.777e-01 0.000e+00 2.551e-04 7.070e-15
7.555e-01 3.777e-01 0.000e+00 2.397e-04 -1.721e-14
9.443e-01 3.777e-01 0.000e+00 2.223e-04 -6.793e-15
1.133e+00 3.777e-01 0.000e+00 2.040e-04 -4.068e-15
1.322e+00 3.777e-01 0.000e+00 1.859e-04 -1.005e-14
1.511e+00 3.777e-01 0.000e+00 1.691e-04 -9.130e-15
1.700e+00 3.777e-01 0.000e+00 1.543e-04 -1.365e-14
1.889e+00 3.777e-01 0.000e+00 1.423e-04 -9.121e-15
2.078e+00 3.777e-01 0.000e+00 1.339e-04 -8.265e-15
2.266e+00 3.777e-01 0.000e+00 1.295e-04 -3.199e-15
2.455e+00 3.777e-01 0.000e+00 1.295e-04 -1.078e-14
2.644e+00 3.777e-01 0.000e+00 1.339e-04 1.571e-15
2.833e+00 3.777e-01 0.000e+00 1.423e-04 -1.558e-15
3.022e+00 3.777e-01 0.000e+00 1.543e-04 2.319e-15
3.211e+00 3.777e-01 0.000e+00 1.691e-04 -2.856e-15
3.400e+00 3.777e-01 0.000e+00 1.859e-04 5.516e-15
3.589e+00 3.777e-01 0.000e+00 2.040e-04 6.652e-15
3.777e+00 3.777e-01 0.000e+00 2.223e-04 4.385e-15
3.966e+00 3.777e-01 0.000e+00 2.397e-04 6.506e-15
4.155e+00 3.777e-01 0.000e+00 2.551e-04 5.705e-15
4.344e+00 3.777e-01 0.000e+00 2.673e-04 1.442e-14
4.533e+00 3.777e-01 0.000e+00 2.751e-04 6.062e-15
0.000e+00 5.666e-01 0.000e+00 2.778e-04 1.953e-15
1.889e-01 5.666e-01 0.000e+00 2.751e-04 8.775e-15
3.777e-01 5.666e-01 0.000e+00 2.673e-04 5.492e-15
5.666e-01 5.666e-01 0.000e+00 2.551e-04 7.070e-15
7.555e-01 5.666e-01 0.000e+00 2.397e-04 -1.721e-14
9.443e-01 5.666e-01 0.000e+00 2.223e-04 -6.793e-15
1.133e+00 5.666e-01 0.000e+00 2.040e-04 -4.068e-15
1.322e+00 5.666e-01 0.000e+00 1.859e-04 -1.005e-14
1.511e+00 5.666e-01 0.000e+00 1.691e-04 -9.130e-15
1.700e+00 5.666e-01 0.000e+00 1.543e-04 -1.365e-14
1.889e+00 5.666e-01 0.000e+00 1.423e-04 -9.121e-15
2.078e+00 5.666e-01 0.000e+00 1.339e-04 -8.265e-15
2.266e+00 5.666e-01 0.000e+00 1.295e-04 -3.199e-15
2.455e+00 5.666e-01 0.000e+00 1.295e-04 -1.078e-14
2.644e+00 5.666e-01 0.000e+00 1.339e-04 1.571e-15
2.833e+00 5.666e-01 0.000e+00 1.423e-04 -1.558e-15
3.022e+00 5.666e-01 0.000e+00 1.543e-04 2.319e-15
3.211e+00 5.666e-01 0.000e+00 1.691e-04 -2.856e-15
3.400e+00 5.666e-01 0.000e+00 1.859e-04 5.516e-15
3.589e+00 5.666e-01 0.000e+00 2.040e-04 6.652e-15
3.777e+00 5.666e-01 0.000e+00 2.223e-04 4.385e-15
3.966e+00 5.666e-01 0.000e+00 2.397e-04 6.506e-15
4.155e+00 5.666e-01 0.000e+00 2.551e-04 5.705e-15
4.344e+00 5.666e-01 0.000e+00 2.673e-04 1.442e-14
4.533e+00 5.666e-01 0.000e+00 2.751e-04 6.062e-15
0.000e+00 7.555e-01 0.000e+00 2.778e-04 1.953e-15
1.889e-01 7.555e-01 0.000e+00 2.751e-04 8.775e-15
3.777e-01 7.555e-01 0.000e+00 2.673e-04 5.492e-15
5.666e-01 7.555e-01 0.000e+00 2.551e-04 7.070e-15
7.555e-01 7.555e-01 0.000e+00 2.397e-04 -1.721e-14
9.443e-01 7.555e-01 0.000e+00 2.223e-04 -6.793e-15
1.133e+00 7.555e-01 0.000e+00 2.040e-04 -4.068e-15
1.322e+00 7.555e-01 0.000e+00 1.859e-04 -1.005e-14
1.511e+00 7.555e-01 0.000e+00 1.691e-04 -9.130e-15
1.700e+00 7.555e-01 0.000e+00 1.543e-04 -1.365e-14
1.889e+00 7.555e-01 0.000e+00 1.423e-04 -9.121e-15
2.078e+00 7.555e-01 0.000e+00 1.339e-04 -8.265e-15
2.266e+00 7.555e-01 0.000e+00 1.295e-04 -3.199e-15
2.455e+00 7.555e-01 0.000e+00 1.295e-04 -1.078e-14
2.644e+00 7.555e-01 0.000e+00 1.339e-04 1.571e-15
2.833e+00 7.555e-01 0.000e+00 1.423e-04 -1.558e-15
3.022e+00 7.555e-01 0.000e+00 1.543e-04 2.319e-15
3.211e+00 7.555e-01 0.000e+00 1.691e-04 -2.856e-15
3.400e+00 7.555e-01 0.000e+00 1.859e-04 5.516e-15
3.589e+00 7.555e-01 0.000e+00 2.040e-04 6.652e-15
3.777e+00 7.555e-01 0.000e+00 2.223e-04 4.385e-15
3.966e+00 7.555e-01 0.000e+00 2.397e-04 6.506e-15
4.155e+00 7.555e-01 0.000e+00 2.551e-04 5.705e-15
4.344e+00 7.555e-01 0.000e+00 2.673e-04 1.442e-14
4.533e+00 7.555e-01 0.000e+00 2.751e-04 6.062e-15
0.000e+00 9.443e-01 0.000e+00 2.778e-04 1.953e-15
1.889e-01 9.443e-01 0.000e+00 2.751e-04 8.775e-15
3.777e-01 9.443e-01 0.000e+00 2.673e-04 5.492e-15
5.666e-01 9.443e-01 0.000e+00 2.551e-04 7.070e-15
7.555e-01 9.443e-01 0.000e+00 2.397e-04 -1.721e-14
9.443e-01 9.443e-01 0.000e+00 2.223e-04 -6.793e-15
1.133e+00 9.443e-01 0.000e+00 2.040e-04 -4.068e-15
1.322e+00 9.443e-01 0.000e+00 1.859e-04 -1.005e-14
1.511e+00 9.443e-01 0.000e+00 1.691e-04 -9.130e-15
1.700e+00 9.443e-01 0.000e+00 1.543e-04 -1.365e-14
1.889e+00 9.443e-01 0.000e+00 1.423e-04 -9.121e-15
2.078e+00 9.443e-01 0.000e+00 1.339e-04 -8.265e-15
2.266e+00 9.443e-01 0.000e+00 1.295e-04 -3.199e-15
2.455e+00 9.443e-01 0.000e+00 1.295e-04 -1.078e-14
2.644e+00 9.443e-01 0.000e+00 1.339e-04 1.571e-15
2.833e+00 9.443e-01 0.000e+00 1.423e-04 -1.558e-15
3.022e+00 9.443e-01 0.000e+00 1.543e-04 2.319e-15
3.211e+00 9.443e-01 0.000e+00 1.691e-04 -2.856e-15
3.400e+00 9.443e-01 0.000e+00 1.859e-04 5.516e-15
3.589e+00 9.443e-01 0.000e+00 2.040e-04 6.652e-15
3.777e+00 9.443e-01 0.000e+00 2.223e-04 4.385e-15
3.966e+00 9.443e-01 0.000e+00 2.397e-04 6.506e-15
4.155e+00 9.443e-01 0.000e+00 2.551e-04 5.705e-15
4.344e+00 9.443e-01 0.000e+00 2.673e-04 1.442e-14
4.533e+00 9.443e-01 0.000e+00 2.751e-04 6.062e-15
0.000e+00 1.133e+00 0.000e+00 2.778e-04 1.953e-15
1.889e-01 1.133e+00 0.000e+00 2.751e-04 8.775e-15
3.777e-01 1.133e+00 0.000e+00 2.673e-04 5.492e-15
5.666e-01 1.133e+00 0.000e+00 2.551e-04 7.070e-15
7.555e-01 1.133e+00 0.000e+00 2.397e-04 -1.721e-14
9.443e-01 1.133e+00 0.000e+00 2.223e-04 -6.793e-15
1.133e+00 1.133e+00 0.000e+00 2.040e-04 -4.068e-15
1.322e+00 1.133e+00 0.000e+00 1.859e-04 -1.005e-14
1.511e+00 1.133e+00 0.000e+00 1.691e-04 -9.130e-15
1.700e+00 1.133e+00 0.000e+00 1.543e-04 -1.365e-14
1.889e+00 1.133e+00 0.000e+00 1.423e-04 -9.121e-15
2.078e+00 1.133e+00 0.000e+00 1.339e-04 -8.265e-15
2.266e+00 1.133e+00 0.000e+00 1.295e-04 -3.199e-15
2.455e+00 1.133e+00 0.000e+00 1.295e-04 -1.078e-14
2.644e+00 1.133e+00 0.000e+00 1.339e-04 1.571e-15
2.833e+00 1.133e+00 0.000e+00 1.423e-04 -1.558e-15
3.022e+00 1.133e+00 0.000e+00 1.543e-04 2.319e-15
3.211e+00 1.133e+00 0.000e+00 1.691e-04 -2.856e-15
3.400e+00 1.133e+00 0.000e+00 1.859e-04 5.516e-15
3.589e+00 1.133e+00 0.000e+00 2.040e-04 6.652e-15
3.777e+00 1.133e+00 0.000e+00 2.223e-04 4.385e-15
3.966e+00 1.133e+00 0.000e+00 2.397e-04 6.506e-15
4.155e+00 1.133e+00 0.000e+00 2.551e-04 5.705e-15
4.344e+00 1.133e+00 0.000e+00 2.673e-04 1.442e-14
4.533e+00 1.133e+00 0.000e+00 2.751e-04 6.062e-15
0.000e+00 1.322e+00 0.000e+00 2.778e-04 1.953e-15
1.889e-01 1.322e+00 0.000e+00 2.751e-04 8.775e-15
3.777e-01 1.322e+00 0.000e+00 2.673e-04 5.492e-15
5.666e-01 1.322e+00 0.000e+00 2.551e-04 7.070e-15
7.555e-01 1.322e+00 0.000e+00 2.397e-04 -1.721e-14
9.443e-01 1.322e+00 0.000e+00 2.223e-04 -6.793e-15
1.133e+00 1.322e+00 0.000e+00 2.040e-04 -4.068e-15
1.322e+00 1.322e+00 0.000e+00 1.859e-04 -1.005e-14
1.511e+00 1.322e+00 0.000e+00 1.691e-04 -9.130e-15
1.700e+00 1.322e+00 0.000e+00 1.543e-04 -1.365e-14
1.889e+00 1.322e+00 0.000e+00 1.423e-04 -9.121e-15
2.078e+00 1.322e+00 0.000e+00 1.339e-04 -8.265e-15
2.266e+00 1.322e+00 0.000e+00 1.295e-04 -3.199e-15
2.455e+00 1.322e+00 0.000e+00 1.295e-04 -1.078e-14
2.644e+00 1.322e+00 0.000e+00 1.339e-04 1.571e-15
2.833e+00 1.322e+00 0.000e+00 1.423e-04 -1.558e-15
3.022e+00 1.322e+00 0.000e+00 1.543e-04 2.319e-15
3.211e+00 1.322e+00 0.000e+00 1.691e-04 -2.856e-15
3.400e+00 1.322e+00 0.000e+00 1.859e-04 5.516e-15
3.589e+00 1.322e+00 0.000e+00 2.040e-04 6.652e-15
3.777e+00 1.322e+00 0.000e+00 2.223e-04 4.385e-15
3.966e+00 1.322e+00 0.000e+00 2.397e-04 6.506e-15
4.155e+00 1.322e+00 0.000e+00 2.551e-04 5.705e-15
4.344e+00 1.322e+00 0.000e+00 2.673e-04 1.442e-14
4.533e+00 1.322e+00 0.000e+00 2.751e-04 6.062e-15
0.000e+00 1.511e+00 0.000e+00 2.778e-04 1.953e-15
1.889e-01 1.511e+00 0.000e+00 2.751e-04 8.775e-15
3.777e-01 1.511e+00 0.000e+00 2.673e-04 5.492e-15
5.666e-01 1.511e+00 0.000e+00 2.551e-04 7.070e-15
7.555e-01 1.511e+00 0.000e+00 2.397e-04 -1.721e-14
9.443e-01 1.511e+00 0.000e+00 2.223e-04 -6.793e-15
1.133e+00 1.511e+00 0.000e+00 2.040e-04 -4.068e-15
1.322e+00 1.511e+00 0.000e+00 1.859e-04 -1.005e-14
1.511e+00 1.511e+00 0.000e+00 1.691e-04 -9.130e-15
1.700e+00 1.511e+00 0.000e+00 1.543e-04 -1.365e-14
1.889e+00 1.511e+00 0.000e+00 1.423e-04 -9.121e-15
2.078e+00 1.511e+00 0.000e+00 1.339e-04 -8.265e-15
2.266e+00 1.511e+00 0.000e+00 1.295e-04 -3.199e-15
2.455e+00 1.511e+00 0.000e+00 1.295e-04 -1.078e-14
2.644e+00 1.511e+00 0.000e+00 1.339e-04 1.571e-15
2.833e+00 1.511e+00 0.000e+00 1.423e-04 -1.558e-15
3.022e+00 1.511e+00 0.000e+00 1.543e-04 2.319e-15
3.211e+00 1.511e+00 0.000e+00 1.691e-04 -2.856e-15
3.400e+00 1.511e+00 0.000e+00 1.859e-04 5.516e-15
3.589e+00 1.511e+00 0.000e+00 2.040e-04 6.652e-15
3.777e+00 1.511e+00 0.000e+00 2.223e-04 4.385e-15
3.966e+00 1.511e+00 0.000e+00 2.397e-04 6.506e-15
4.155e+00 1.511e+00 0.000e+00 2.551e-04 5.705e-15
4.344e+00 1.511e+00 0.000e+00 2.673e-04 1.442e-14
4.533e+00 1.511e+00 0.000e+00 2.751e-04 6.062e-15
0.000e+00 1.700e+00 0.000e+00 2.778e-04 1.953e-15
1.889e-01 1.700e+00 0.000e+00 2.751e-04 8.775e-15
3.777e-01 1.700e+00 0.000e+00 2.673e-04 5.492e-15
5.666e-01 1.700e+00 0.000e+00 2.551e-04 7.070e-15
7.555e-01 1.700e+00 0.000e+00 2.397e-04 -1.721e-14
9.443e-01 1.700e+00 0.000e+00 2.223e-04 -6.793e-15
1.133e+00 1.700e+00 0.000e+00 2.040e-04 -4.068e-15
1.322e+00 1.700e+00 0.000e+00 1.859e-04 -1.005e-14
1.511e+00 1.700e+00 0.000e+00 1.691e-04 -9.130e-15
1.700e+00 1.700e+00 0.000e+00 1.543e-04 -1.365e-14
1.889e+00 1.700e+00 0.000e+00 1.423e-04 -9.121e-15
2.078e+00 1.700e+00 0.000e+00 1.339e-04 -8.265e-15
2.266e+00 1.700e+00 0.000e+00 1.295e-04 -3.199e-15
2.455e+00 1.700e+00 0.000e+00 1.295e-04 -1.078e-14
2.644e+00 1.700e+00 0.000e+00 1.339e-04 1.571e-15
2.833e+00 1.700e+00 0.000e+00 1.423e-04 -1.558e-15
3.022e+00 1.700e+00 0.000e+00 1.543e-04 2.319e-15
3.211e+00 1.700e+00 0.000e+00 1.691e-04 -2.856e-15
3.400e+00 1.700e+00 0.000e+00 1.859e-04 5.516e-15
3.589e+00 1.700e+00 0.000e+00 2.040e-04 6.652e-15
3.777e+00 1.700e+00 0.000e+00 2.223e-04 4.385e-15
3.966e+00 1.700e+00 0.000e+00 2.397e-04 6.506e-15
4.155e+00 1.700e+00 0.000e+00 2.551e-04 5.705e-15
4.344e+00 1.700e+00 0.000e+00 2.673e-04 1.442e-14
4.533e+00 1.700e+00 0.000e+00 2.751e-04 6.062e-15
0.000e+00 1.889e+00 0.000e+00 2.778e-04 1.953e-15
1.889e-01 1.889e+00 0.000e+00 2.751e-04 8.775e-15
3.777e-01 1.889e+00 0.000e+00 2.673e-04 5.492e-15
5.666e-01 1.889e+00 0.000e+00 2.551e-04 7.070e-15
7.555e-01 1.889e+00 0.000e+00 2.397e-04 -1.721e-14
9.443e-01 1.889e+00 0.000e+00 2.223e-04 -6.793e-15
1.133e+00 1.889e+00 0.000e+00 2.040e-04 -4.068e-15
1.322e+00 1.889e+00 0.000e+00 1.859e-04 -1.005e-14
1.511e+00 1.889e+00 0.000e+00 1.691e-04 -9.130e-15
1.700e+00 1.889e+00 0.000e+00 1.543e-04 -1.365e-14
1.889e+00 1.889e+00 0.000e+00 1.423e-04 -9.121e-15
2.078e+00 1.889e+00 0.000e+00 1.339e-04 -8.265e-15
2.266e+00 1.889e+00 0.000e+00 1.295e-04 -3.199e-15
2.455e+00 1.889e+00 0.000e+00 1.295e-04 -1.078e-14
2.644e+00 1.889e+00 0.000e+00 1.339e-04 1.571e-15
2.833e+00 1.889e+00 0.000e+00 1.423e-04 -1.558e-15
3.022e+00 1.889e+00 0.000e+00 1.543e-04 2.319e-15
3.211e+00 1.889e+00 0.000e+00 1.691e-04 -2.856e-15
3.400e+00 1.889e+00 0.000e+00 1.859e-04 5.516e-15
3.589e+00 1.889e+00 0.000e+00 2.040e-04 6.652e-15
3.777e+00 1.889e+00 0.000e+00 2.223e-04 4.385e-15
3.966e+00 1.889e+00 0.000e+00 2.397e-04 6.506e-15
4.155e+00 1.889e+00 0.000e+00 2.551e-04 5.705e-15
4.344e+00 1.889e+00 0.000e+00 2.673e-04 1.442e-14
4.533e+00 1.889e+00 0.000e+00 2.751e-04 6.062e-15
0.000e+00 2.078e+00 0.000e+00 2.778e-04 1.953e-15
1.889e-01 2.078e+00 0.000e+00 2.751e-04 8.775e-15
3.777e-01 2.078e+00 0.000e+00 2.673e-04 5.492e-15
5.666e-01 2.078e+00 0.000e+00 2.551e-04 7.070e-15
7.555e-01 2.078e+00 0.000e+00 2.397e-04 -1.721e-14
9.443e-01 2.078e+00 0.000e+00 2.223e-04 -6.793e-15
1.133e+00 2.078e+00 0.000e+00 2.040e-04 -4.068e-15
1.322e+00 2.078e+00 0.000e+00 1.859e-04 -1.005e-14
1.511e+00 2.078e+00 0.000e+00 1.691e-04 -9.130e-15
1.700e+00 2.078e+00 0.000e+00 1.543e-04 -1.365e-14
1.889e+00 2.078e+00 0.000e+00 1.423e-04 -9.121e-15
2.078e+00 2.078e+00 0.000e+00 1.339e-04 -8.265e-15
2.266e+00 2.078e+00 0.000e+00 1.295e-04 -3.199e-15
2.455e+00 2.078e+00 0.000e+00 1.295e-04 -1.078e-14
2.644e+00 2.078e+00 0.000e+00 1.339e-04 1.571e-15
2.833e+00 2.078e+00 0.000e+00 1.423e-04 -1.558e-15
3.022e+00 2.078e+00 0.000e+00 1.543e-04 2.319e-15
3.211e+00 2.078e+00 0.000e+00 1.691e-04 -2.856e-15
3.400e+00 2.078e+00 0.000e+00 1.859e-04 5.516e-15
3.589e+00 2.078e+00 0.000e+00 2.040e-04 6.652e-15
3.777e+00 2.078e+00 0.000e+00 2.223e-04 4.385e-15
3.966e+00 2.078e+00 0.000e+00 2.397e-04 6.506e-15
4.155e+00 2.078e+00 0.000e+00 2.551e-04 5.705e-15
4.344e+00 2.078e+00 0.000e+00 2.673e-04 1.442e-14
4.533e+00 2.078e+00 0.000e+00 2.751e-04 6.062e-15
0.000e+00 2.266e+00 0.000e+00 2.778e-04 1.953e-15
1.889e-01 2.266e+00 0.000e+00 2.751e-04 8.775e-15
3.777e-01 2.266e+00 0.000e+00 2.673e-04 5.492e-15
5.666e-01 2.266e+00 0.000e+00 2.551e-04 7.070e-15
7.555e-01 2.266e+00 0.000e+00 2.397e-04 -1.721e-14
9.443e-01 2.266e+00 0.000e+00 2.223e-04 -6.793e-15
1.133e+00 2.266e+00 0.000e+00 2.040e-04 -4.068e-15
1.322e+00 2.266e+00 0.000e+00 1.859e-04 -1.005e-14
1.511e+00 2.266e+00 0.000e+00 1.691e-04 -9.130e-15
1.700e+00 2.266e+00 0.000e+00 1.543e-04 -1.365e-14
1.889e+00 2.266e+00 0.000e+00 1.423e-04 -9.121e-15
2.078e+00 2.266e+00 0.000e+00 1.339e-04 -8.265e-15
2.266e+00 2.266e+00 0.000e+00 1.295e-04 -3.199e-15
2.455e+00 2.266e+00 0.000e+00 1.295e-04 -1.078e-14
2.644e+00 2.266e+00 0.000e+00 1.339e-04 1.571e-15
2.833e+00 2.266e+00 0.000e+00 1.423e-04 -1.558e-15
3.022e+00 2.266e+00 0.000e+00 1.543e-04 2.319e-15
3.211e+00 2.266e+00 0.000e+00 1.691e-04 -2.856e-15
3.400e+00 2.266e+00 0.000e+00 1.859e-04 5.516e-15
3.589e+00 2.266e+00 0.000e+00 2.040e-04 6.652e-15
3.777e+00 2.266e+00 0.000e+00 2.223e-04 4.385e-15
3.966e+00 2.266e+00 0.000e+00 2.397e-04 6.506e-15
4.155e+00 2.266e+00 0.000e+00 2.551e-04 5.705e-15
4.344e+00 2.266e+00 0.000e+00 2.673e-04 1.442e-14
4.533e+00 2.266e+00 0.000e+00 2.751e-04 6.062e-15
0.000e+00 2.455e+00 0.000e+00 2.778e-04 1.953e-15
1.889e-01 2.455e+00 0.000e+00 2.751e-04 8.775e-15
3.777e-01 2.455e+00 0.000e+00 2.673e-04 5.492e-15
5.666e-01 2.455e+00 0.000e+00 2.551e-04 7.070e-15
7.555e-01 2.455e+00 0.000e+00 2.397e-04 -1.721e-14
9.443e-01 2.455e+00 0.000e+00 2.223e-04 -6.793e-15
1.133e+00 2.455e+00 0.000e+00 2.040e-04 -4.068e-15
1.322e+00 2.455e+00 0.000e+00 1.859e-04 -1.005e-14
1.511e+00 2.455e+00 0.000e+00 1.691e-04 -9.130e-15
1.700e+00 2.455e+00 0.000e+00 1.543e-04 -1.365e-14
1.889e+00 2.455e+00 0.000e+00 1.423e-04 -9.121e-15
2.078e+00 2.455e+00 0.000e+00 1.339e-04 -8.265e-15
2.266e+00 2.455e+00 0.000e+00 1.295e-04 -3.199e-15
2.455e+00 2.455e+00 0.000e+00 1.295e-04 -1.078e-14
2.644e+00 2.455e+00 0.000e+00 1.339e-04 1.571e-15
2.833e+00 2.455e+00 0.000e+00 1.423e-04 -1.558e-15
3.022e+00 2.455e+00 0.000e+00 1.543e-04 2.319e-15
3.211e+00 2.455e+00 0.000e+00 1.691e-04 -2.856e-15
3.400e+00 2.455e+00 0.000e+00 1.859e-04 5.516e-15
3.589e+00 2.455e+00 0.000e+00 2.040e-04 6.652e-15
3.777e+00 2.455e+00 0.000e+00 2.223e-04 4.385e-15
3.966e+00 2.455e+00 0.000e+00 2.397e-04 6.506e-15
4.155e+00 2.455e+00 0.000e+00 2.551e-04 5.705e-15
4.344e+00 2.455e+00 0.000e+00 2.673e-04 1.442e-14
4.533e+00 2.455e+00 0.000e+00 2.751e-04 6.062e-15
0.000e+00 2.644e+00 0.000e+00 2.778e-04 1.953e-15
1.889e-01 2.644e+00 0.000e+00 2.751e-04 8.775e-15
3.777e-01 2.644e+00 0.000e+00 2.673e-04 5.492e-15
5.666e-01 2.644e+00 0.000e+00 2.551e-04 7.070e-15
7.555e-01 2.644e+00 0.000e+00 2.397e-04 -1.721e-14
9.443e-01 2.644e+00 0.000e+00 2.223e-04 -6.793e-15
1.133e+00 2.644e+00 0.000e+00 2.040e-04 -4.068e-15
1.322e+00 2.644e+00 0.000e+00 1.859e-04 -1.005e-14
1.511e+00 2.644e+00 0.000e+00 1.691e-04 -9.130e-15
1.700e+00 2.644e+00 0.000e+00 1.543e-04 -1.365e-14
1.889e+00 2.644e+00 0.000e+00 1.423e-04 -9.121e-15
2.078e+00 2.644e+00 0.000e+00 1.339e-04 -8.265e-15
2.266e+00 2.644e+00 0.000e+00 1.295e-04 -3.199e-15
2.455e+00 2.644e+00 0.000e+00 1.295e-04 -1.078e-14
2.644e+00 2.644e+00 0.000e+00 1.339e-04 1.571e-15
2.833e+00 2.644e+00 0.000e+00 1.423e-04 -1.558e-15
3.022e+00 2.644e+00 0.000e+00 1.543e-04 2.319e-15
3.211e+00 2.644e+00 0.000e+00 1.691e-04 -2.856e-15
3.400e+00 2.644e+00 0.000e+00 1.859e-04 5.516e-15
3.589e+00 2.644e+00 0.000e+00 2.040e-04 6.652e-15
3.777e+00 2.644e+00 0.000e+00 2.223e-04 4.385e-15
3.966e+00 2.644e+00 0.000e+00 2.397e-04 6.506e-15
4.155e+00 2.644e+00 0.000e+00 2.551e-04 5.705e-15
4.344e+00 2.644e+00 0.000e+00 2.673e-04 1.442e-14
4.533e+00 2.644e+00 0.000e+00 2.751e-04 6.062e-15
0.000e+00 2.833e+00 0.000e+00 2.778e-04 1.953e-15
1.889e-01 2.833e+00 0.000e+00 2.751e-04 8.775e-15
3.777e-01 2.833e+00 0.000e+00 2.673e-04 5.492e-15
5.666e-01 2.833e+00 0.000e+00 2.551e-04 7.070e-15
7.555e-01 2.833e+00 0.000e+00 2.397e-04 -1.721e-14
9.443e-01 2.833e+00 0.000e+00 2.223e-04 -6.793e-15
1.133e+00 2.833e+00 0.000e+00 2.040e-04 -4.068e-15
1.322e+00 2.833e+00 0.000e+00 1.859e-04 -1.005e-14
1.511e+00 2.833e+00 0.000e+00 1.691e-04 -9.130e-15
1.700e+00 2.833e+00 0.000e+00 1.543e-04 -1.365e-14
1.889e+00 2.833e+00 0.000e+00 1.423e-04 -9.121e-15
2.078e+00 2.833e+00 0.000e+00 1.339e-04 -8.265e-15
2.266e+00 2.833e+00 0.000e+00 1.295e-04 -3.199e-15
2.455e+00 2.833e+00 0.000e+00 1.295e-04 -1.078e-14
2.644e+00 2.833e+00 0.000e+00 1.339e-04 1.571e-15
2.833e+00 2.833e+00 0.000e+00 1.423e-04 -1.558e-15
3.022e+00 2.833e+00 0.000e+00 1.543e-04 2.319e-15
3.211e+00 2.833e+00 0.000e+00 1.691e-04 -2.856e-15
3.400e+00 2.833e+00 0.000e+00 1.859e-04 5.516e-15
3.589e+00 2.833e+00 0.000e+00 2.040e-04 6.652e-15
3.777e+00 2.833e+00 0.000e+00 2.223e-04 4.385e-15
3.966e+00 2.833e+00 0.000e+00 2.397e-04 6.506e-15
4.155e+00 2.833e+00 0.000e+00 2.551e-04 5.705e-15
4.344e+00 2.833e+00 0.000e+00 2.673e-04 1.442e-14
4.533e+00 2.833e+00 0.000e+00 2.751e-04 6.062e-15
0.000e+00 3.022e+00 0.000e+00 2.778e-04 1.953e-15
1.889e-01 3.022e+00 0.000e+00 2.751e-04 8.775e-15
3.777e-01 3.022e+00 0.000e+00 2.673e-04 5.492e-15
5.666e-01 3.022e+00 0.000e+00 2.551e-04 7.070e-15
7.555e-01 3.022e+00 0.000e+00 2.397e-04 -1.721e-14
9.443e-01 3.022e+00 0.000e+00 2.223e-04 -6.793e-15
1.133e+00 3.022e+00 0.000e+00 2.040e-04 -4.068e-15
1.322e+00 3.022e+00 0.000e+00 1.859e-04 -1.005e-14
1.511e+00 3.022e+00 0.000e+00 1.691e-04 -9.130e-15
1.700e+00 3.022e+00 0.000e+00 1.543e-04 -1.365e-14
1.889e+00 3.022e+00 0.000e+00 1.423e-04 -9.121e-15
2.078e+00 3.022e+00 0.000e+00 1.339e-04 -8.265e-15
2.266e+00 3.022e+00 0.000e+00 1.295e-04 -3.199e-15
2.455e+00 3.022e+00 0.000e+00 1.295e-04 -1.078e-14
2.644e+00 3.022e+00 0.000e+00 1.339e-04 1.571e-15
2.833e+00 3.022e+00 0.000e+00 1.423e-04 -1.558e-15
3.022e+00 3.022e+00 0.000e+00 1.543e-04 2.319e-15
3.211e+00 3.022e+00 0.000e+00 1.691e-04 -2.856e-15
3.400e+00 3.022e+00 0.000e+00 1.859e-04 5.516e-15
3.589e+00 3.022e+00 0.000e+00 2.040e-04 6.652e-15
3.777e+00 3.022e+00 0.000e+00 2.223e-04 4.385e-15
3.966e+00 3.022e+00 0.000e+00 2.397e-04 6.506e-15
4.155e+00 3.022e+00 0.000e+00 2.551e-04 5.705e-15
4.344e+00 3.022e+00 0.000e+00 2.673e-04 1.442e-14
4.533e+00 3.022e+00 0.000e+00 2.751e-04 6.062e-15
0.000e+00 3.211e+00 0.000e+00 2.778e-04 1.953e-15
1.889e-01 3.211e+00 0.000e+00 2.751e-04 8.775e-15
3.777e-01 3.211e+00 0.000e+00 2.673e-04 5.492e-15
5.666e-01 3.211e+00 0.000e+00 2.551e-04 7.070e-15
7.555e-01 3.211e+00 0.000e+00 2.397e-04 -1.721e-14
9.443e-01 3.211e+00 0.000e+00 2.223e-04 -6.793e-15
1.133e+00 3.211e+00 0.000e+00 2.040e-04 -4.068e-15
1.322e+00 3.211e+00 0.000e+00 1.859e-04 -1.005e-14
1.511e+00 3.211e+00 0.000e+00 1.691e-04 -9.130e-15
1.700e+00 3.211e+00 0.000e+00 1.543e-04 -1.365e-14
1.889e+00 3.211e+00 0.000e+00 1.423e-04 -9.121e-15
2.078e+00 3.211e+00 0.000e+00 1.339e-04 -8.265e-15
2.266e+00 3.211e+00 0.000e+00 1.295e-04 -3.199e-15
2.455e+00 3.211e+00 0.000e+00 1.295e-04 -1.078e-14
2.644e+00 3.211e+00 0.000e+00 1.339e-04 1.571e-15
2.833e+00 3.211e+00 0.000e+00 1.423e-04 -1.558e-15
3.022e+00 3.211e+00 0.000e+00 1.543e-04 2.319e-15
3.211e+00 3.211e+00 0.000e+00 1.691e-04 -2.856e-15
3.400e+00 3.211e+00 0.000e+00 1.859e-04 5.516e-15
3.589e+00 3.211e+00 0.000e+00 2.040e-04 6.652e-15
3.777e+00 3.211e+00 0.000e+00 2.223e-04 4.385e-15
3.966e+00 3.211e+00 0.000e+00 2.397e-04 6.506e-15
4.155e+00 3.211e+00 0.000e+00 2.551e-04 5.705e-15
4.344e+00 3.211e+00 0.000e+00 2.673e-04 1.442e-14
4.533e+00 3.211e+00 0.000e+00 2.751e-04 6.062e-15
0.000e+00 3.400e+00 0.000e+00 2.778e-04 1.953e-15
1.889e-01 3.400e+00 0.000e+00 2.751e-04 8.775e-15
3.777e-01 3.400e+00 0.000e+00 2.673e-04 5.492e-15
5.666e-01 3.400e+00 0.000e+00 2.551e-04 7.070e-15
7.555e-01 3.400e+00 0.000e+00 2.397e-04 -1.721e-14
9.443e-01 3.400e+00 0.000e+00 2.223e-04 -6.793e-15
1.133e+00 3.400e+00 0.000e+00 2.040e-04 -4.068e-15
1.322e+00 3.400e+00 0.000e+00 1.859e-04 -1.005e-14
1.511e+00 3.400e+00 0.000e+00 1.691e-04 -9.130e-15
1.700e+00 3.400e+00 0.000e+00 1.543e-04 -1.365e-14
1.889e+00 3.400e+00 0.000e+00 1.423e-04 -9.121e-15
2.078e+00 3.400e+00 0.000e+00 1.339e-04 -8.265e-15
2.266e+00 3.400e+00 0.000e+00 1.295e-04 -3.199e-15
2.455e+00 3.400e+00 0.000e+00 1.295e-04 -1.078e-14
2.644e+00 3.400e+00 0.000e+00 1.339e-04 1.571e-15
2.833e+00 3.400e+00 0.000e+00 1.423e-04 -1.558e-15
3.022e+00 3.400e+00 0.000e+00 1.543e-04 2.319e-15
3.211e+00 3.400e+00 0.000e+00 1.691e-04 -2.856e-15
3.400e+00 3.400e+00 0.000e+00 1.859e-04 5.516e-15
3.589e+00 3.400e+00 0.000e+00 2.040e-04 6.652e-15
3.777e+00 3.400e+00 0.000e+00 2.223e-04 4.385e-15
3.966e+00 3.400e+00 0.000e+00 2.397e-04 6.506e-15
4.155e+00 3.400e+00 0.000e+00 2.551e-04 5.705e-15
4.344e+00 3.400e+00 0.000e+00 2.673e-04 1.442e-14
4.533e+00 3.400e+00 0.000e+00 2.751e-04 6.062e-15
0.000e+00 3.589e+00 0.000e+00 2.778e-04 1.953e-15
1.889e-01 3.589e+00 0.000e+00 2.751e-04 8.775e-15
3.777e-01 3.589e+00 0.000e+00 2.673e-04 5.492e-15
5.666e-01 3.589e+00 0.000e+00 2.551e-04 7.070e-15
7.555e-01 3.589e+00 0.000e+00 2.397e-04 -1.721e-14
9.443e-01 3.589e+00 0.000e+00 2.223e-04 -6.793e-15
1.133e+00 3.589e+00 0.000e+00 2.040e-04 -4.068e-15
1.322e+00 3.589e+00 0.000e+00 1.859e-04 -1.005e-14
1.511e+00 3.589e+00 0.000e+00 1.691e-04 -9.130e-15
1.700e+00 3.589e+00 0.000e+00 1.543e-04 -1.365e-14
1.889e+00 3.589e+00 0.000e+00 1.423e-04 -9.121e-15
2.078e+00 3.589e+00 0.000e+00 1.339e-04 -8.265e-15
2.266e+00 3.589e+00 0.000e+00 1.295e-04 -3.199e-15
2.455e+00 3.589e+00 0.000e+00 1.295e-04 -1.078e-14
2.644e+00 3.589e+00 0.000e+00 1.339e-04 1.571e-15
2.833e+00 3.589e+00 0.000e+00 1.423e-04 -1.558e-15
3.022e+00 3.589e+00 0.000e+00 1.543e-04 2.319e-15
3.211e+00 3.589e+00 0.000e+00 1.691e-04 -2.856e-15
3.400e+00 3.589e+00 0.000e+00 1.859e-04 5.516e-15
3.589e+00 3.589e+00 0.000e+00 2.040e-04 6.652e-15
3.777e+00 3.589e+00 0.000e+00 2.223e-04 4.385e-15
3.966e+00 3.589e+00 0.000e+00 2.397e-04 6.506e-15
4.155e+00 3.589e+00 0.000e+00 2.551e-04 5.705e-15
4.344e+00 3.589e+00 0.000e+00 2.673e-04 1.442e-14
4.533e+00 3.589e+00 0.000e+00 2.751e-04 6.062e-15
0.000e+00 3.777e+00 0.000e+00 2.778e-04 1.953e-15
1.889e-01 3.777e+00 0.000e+00 2.751e-04 8.775e-15
3.777e-01 3.777e+00 0.000e+00 2.673e-04 5.492e-15
5.666e-01 3.777e+00 0.000e+00 2.551e-04 7.070e-15
7.555e-01 3.777e+00 0.000e+00 2.397e-04 -1.721e-14
9.443e-01 3.777e+00 0.000e+00 2.223e-04 -6.793e-15
1.133e+00 3.777e+00 0.000e+00 2.040e-04 -4.068e-15
1.322e+00 3.777e+00 0.000e+00 1.859e-04 -1.005e-14
1.511e+00 3.777e+00 0.000e+00 1.691e-04 -9.130e-15
1.700e+00 3.777e+00 0.000e+00 1.543e-04 -1.365e-14
1.889e+00 3.777e+00 0.000e+00 1.423e-04 -9.121e-15
2.078e+00 3.777e+00 0.000e+00 1.339e-04 -8.265e-15
2.266e+00 3.777e+00 0.000e+00 1.295e-04 -3.199e-15
2.455e+00 3.777e+00 0.000e+00 1.295e-04 -1.078e-14
2.644e+00 3.777e+00 0.000e+00 1.339e-04 1.571e-15
2.833e+00 3.777e+00 0.000e+00 1.423e-04 -1.558e-15
3.022e+00 3.777e+00 0.000e+00 1.543e-04 2.319e-15
3.211e+00 3.777e+00 0.000e+00 1.691e-04 -2.856e-15
3.400e+00 3.777e+00 0.000e+00 1.859e-04 5.516e-15
3.589e+00 3.777e+00 0.000e+00 2.040e-04 6.652e-15
3.777e+00 3.777e+00 0.000e+00 2.223e-04 4.385e-15
3.966e+00 3.777e+00 0.000e+00 2.397e-04 6.506e-15
4.155e+00 3.777e+00 0.000e+00 2.551e-04 5.705e-15
4.344e+00 3.777e+00 0.000e+00 2.673e-04 1.442e-14
4.533e+00 3.777e+00 0.000e+00 2.751e-04 6.062e-15
0.000e+00 3.966e+00 0.000e+00 2.778e-04 1.953e-15
1.889e-01 3.966e+00 0.000e+00 2.751e-04 8.775e-15
3.777e-01 3.966e+00 0.000e+00 2.673e-04 5.492e-15
5.666e-01 3.966e+00 0.000e+00 2.551e-04 7.070e-15
7.555e-01 3.966e+00 0.000e+00 2.397e-04 -1.721e-14
9.443e-01 3.966e+00 0.000e+00 2.223e-04 -6.793e-15
1.133e+00 3.966e+00 0.000e+00 2.040e-04 -4.068e-15
1.322e+00 3.966e+00 0.000e+00 1.859e-04 -1.005e-14
1.511e+00 3.966e+00 0.000e+00 1.691e-04 -9.130e-15
1.700e+00 3.966e+00 0.000e+00 1.543e-04 -1.365e-14
1.889e+00 3.966e+00 0.000e+00 1.423e-04 -9.121e-15
2.078e+00 3.966e+00 0.000e+00 1.339e-04 -8.265e-15
2.266e+00 3.966e+00 0.000e+00 1.295e-04 -3.199e-15
2.455e+00 3.966e+00 0.000e+00 1.295e-04 -1.078e-14
2.644e+00 3.966e+00 0.000e+00 1.339e-04 1.571e-15
2.833e+00 3.966e+00 0.000e+00 1.423e-04 -1.558e-15
3.022e+00 3.966e+00 0.000e+00 1.543e-04 2.319e-15
3.211e+00 3.966e+00 0.000e+00 1.691e-04 -2.856e-15
3.400e+00 3.966e+00 0.000e+00 1.859e-04 5.516e-15
3.589e+00 3.966e+00 0.000e+00 2.040e-04 6.652e-15
3.777e+00 3.966e+00 0.000e+00 2.223e-04 4.385e-15
3.966e+00 3.966e+00 0.000e+00 2.397e-04 6.506e-15
4.155e+00 3.966e+00 0.000e+00 2.551e-04 5.705e-15
4.344e+00 3.966e+00 0.000e+00 2.673e-04 1.442e-14
4.533e+00 3.966e+00 0.000e+00 2.751e-04 6.062e-15
0.000e+00 4.155e+00 0.000e+00 2.778e-04 1.953e-15
1.889e-01 4.155e+00 0.000e+00 2.751e-04 8.775e-15
3.777e-01 4.155e+00 0.000e+00 2.673e-04 5.492e-15
5.666e-01 4.155e+00 0.000e+00 2.551e-04 7.070e-15
7.555e-01 4.155e+00 0.000e+00 2.397e-04 -1.721e-14
9.443e-01 4.155e+00 0.000e+00 2.223e-04 -6.793e-15
1.133e+00 4.155e+00 0.000e+00 2.040e-04 -4.068e-15
1.322e+00 4.155e+00 0.000e+00 1.859e-04 -1.005e-14
1.511e+00 4.155e+00 0.000e+00 1.691e-04 -9.130e-15
1.700e+00 4.155e+00 0.000e+00 1.543e-04 -1.365e-14
1.889e+00 4.155e+00 0.000e+00 1.423e-04 -9.121e-15
2.078e+00 4.155e+00 0.000e+00 1.339e-04 -8.265e-15
2.266e+00 4.155e+00 0.000e+00 1.295e-04 -3.199e-15
2.455e+00 4.155e+00 0.000e+00 1.295e-04 -1.078e-14
2.644e+00 4.155e+00 0.000e+00 1.339e-04 1.571e-15
2.833e+00 4.155e+00 0.000e+00 1.423e-04 -1.558e-15
3.022e+00 4.155e+00 0.000e+00 1.543e-04 2.319e-15
3.211e+00 4.155e+00 0.000e+00 1.691e-04 -2.856e-15
3.400e+00 4.155e+00 0.000e+00 1.859e-04 5.516e-15
3.589e+00 4.155e+00 0.000e+00 2.040e-04 6.652e-15
3.777e+00 4.155e+00 0.000e+00 2.223e-04 4.385e-15
3.966e+00 4.155e+00 0.000e+00 2.397e-04 6.506e-15
4.155e+00 4.155e+00 0.000e+00 2.551e-04 5.705e-15
4.344e+00 4.155e+00 0.000e+00 2.673e-04 1.442e-14
4.533e+00 4.155e+00 0.000e+00 2.751e-04 6.062e-15
0.000e+00 4.344e+00 0.000e+00 2.778e-04 1.953e-15
1.889e-01 4.344e+00 0.000e+00 2.751e-04 8.775e-15
3.777e-01 4.344e+00 0.000e+00 2.673e-04 5.492e-15
5.666e-01 4.344e+00 0.000e+00 2.551e-04 7.070e-15
7.555e-01 4.344e+00 0.000e+00 2.397e-04 -1.721e-14
9.443e-01 4.344e+00 0.000e+00 2.223e-04 -6.793e-15
1.133e+00 4.344e+00 0.000e+00 2.040e-04 -4.068e-15
1.322e+00 4.344e+00 0.000e+00 1.859e-04 -1.005e-14
1.511e+00 4.344e+00 0.000e+00 1.691e-04 -9.130e-15
1.700e+00 4.344e+00 0.000e+00 1.543e-04 -1.365e-14
1.889e+00 4.344e+00 0.000e+00 1.423e-04 -9.121e-15
2.078e+00 4.344e+00 0.000e+00 1.339e-04 -8.265e-15
2.266e+00 4.344e+00 0.000e+00 1.295e-04 -3.199e-15
2.455e+00 4.344e+00 0.000e+00 1.295e-04 -1.078e-14
2.644e+00 4.344e+00 0.000e+00 1.339e-04 1.571e-15
2.833e+00 4.344e+00 0.000e+00 1.423e-04 -1.558e-15
3.022e+00 4.344e+00 0.000e+00 1.543e-04 2.319e-15