TITLE = "wabp"
VARIABLES = "X", "Y", "Z", "Real", "Imaginary"
ZONE I=25, J=25, K=75, F=POINT
0.000e+00 0.000e+00 0.000e+00 -5.555e-14 -3.500e-04
1.889e-01 0.000e+00 0.000e+00 -5.222e-14 -3.468e-04
3.777e-01 0.000e+00 0.000e+00 -5.487e-14 -3.374e-04
5.666e-01 0.000e+00 0.000e+00 -5.670e-14 -3.226e-04
7.555e-01 0.000e+00 0.000e+00 -5.784e-14 -3.036e-04
9.443e-01 0.000e+00 0.000e+00 -5.341e-14 -2.816e-04
1.133e+00 0.000e+00 0.000e+00 -5.447e-14 -2.581e-04
1.322e+00 0.000e+00 0.000e+00 -5.725e-14 -2.344e-04
1.511e+00 0.000e+00 0.000e+00 -6.390e-14 -2.120e-04
1.700e+00 0.000e+00 0.000e+00 -5.381e-14 -1.920e-04
1.889e+00 0.000e+00 0.000e+00 -4.807e-14 -1.757e-04
2.078e+00 0.000e+00 0.000e+00 -7.656e-14 -1.642e-04
2.266e+00 0.000e+00 0.000e+00 -6.309e-14 -1.582e-04
2.455e+00 0.000e+00 0.000e+00 -5.709e-14 -1.582e-04
2.644e+00 0.000e+00 0.000e+00 -6.052e-14 -1.642e-04
2.833e+00 0.000e+00 0.000e+00 -4.901e-14 -1.757e-04
3.022e+00 0.000e+00 0.000e+00 -6.252e-14 -1.920e-04
3.211e+00 0.000e+00 0.000e+00 -5.832e-14 -2.120e-04
3.400e+00 0.000e+00 0.000e+00 -4.778e-14 -2.344e-04
3.589e+00 0.000e+00 0.000e+00 -3.565e-14 -2.581e-04
3.777e+00 0.000e+00 0.000e+00 -4.661e-14 -2.816e-04
3.966e+00 0.000e+00 0.000e+00 -4.426e-14 -3.036e-04
4.155e+00 0.000e+00 0.000e+00 -6.751e-14 -3.226e-04
4.344e+00 0.000e+00 0.000e+00 -5.466e-14 -3.374e-04
4.533e+00 0.000e+00 0.000e+00 -5.404e-14 -3.468e-04
0.000e+00 1.889e-01 0.000e+00 -5.555e-14 -3.500e-04
1.889e-01 1.889e-01 0.000e+00 -5.222e-14 -3.468e-04
3.777e-01 1.889e-01 0.000e+00 -5.487e-14 -3.374e-04
5.666e-01 1.889e-01 0.000e+00 -5.670e-14 -3.226e-04
7.555e-01 1.889e-01 0.000e+00 -5.784e-14 -3.036e-04
9.443e-01 1.889e-01 0.000e+00 -5.341e-14 -2.816e-04
1.133e+00 1.889e-01 0.000e+00 -5.447e-14 -2.581e-04
1.322e+00 1.889e-01 0.000e+00 -5.725e-14 -2.344e-04
1.511e+00 1.889e-01 0.000e+00 -6.390e-14 -2.120e-04
1.700e+00 1.889e-01 0.000e+00 -5.381e-14 -1.920e-04
1.889e+00 1.889e-01 0.000e+00 -4.807e-14 -1.757e-04
2.078e+00 1.889e-01 0.000e+00 -7.656e-14 -1.642e-04
2.266e+00 1.889e-01 0.000e+00 -6.309e-14 -1.582e-04
2.455e+00 1.889e-01 0.000e+00 -5.709e-14 -1.582e-04
2.644e+00 1.889e-01 0.000e+00 -6.052e-14 -1.642e-04
2.833e+00 1.889e-01 0.000e+00 -4.901e-14 -1.757e-04
3.022e+00 1.889e-01 0.000e+00 -6.252e-14 -1.920e-04
3.211e+00 1.889e-01 0.000e+00 -5.832e-14 -2.120e-04
3.400e+00 1.889e-01 0.000e+00 -4.778e-14 -2.344e-04
3.589e+00 1.889e-01 0.000e+00 -3.565e-14 -2.581e-04
3.777e+00 1.889e-01 0.000e+00 -4.661e-14 -2.816e-04
3.966e+00 1.889e-01 0.000e+00 -4.426e-14 -3.036e-04
4.155e+00 1.889e-01 0.000e+00 -6.751e-14 -3.226e-04
4.344e+00 1.889e-01 0.000e+00 -5.466e-14 -3.374e-04
4.533e+00 1.889e-01 0.000e+00 -5.404e-14 -3.468e-04
0.000e+00 3.777e-01 0.000e+00 -5.555e-14 -3.500e-04
1.889e-01 3.777e-01 0.000e+00 -5.222e-14 -3.468e-04
3.777e-01 3.777e-01 0.000e+00 -5.487e-14 -3.374e-04
5.666e-01 3.777e-01 0.000e+00 -5.670e-14 -3.226e-04
7.555e-01 3.777e-01 0.000e+00 -5.784e-14 -3.036e-04
9.443e-01 3.777e-01 0.000e+00 -5.341e-14 -2.816e-04
1.133e+00 3.777e-01 0.000e+00 -5.447e-14 -2.581e-04
1.322e+00 3.777e-01 0.000e+00 -5.725e-14 -2.344e-04
1.511e+00 3.777e-01 0.000e+00 -6.390e-14 -2.120e-04
1.700e+00 3.777e-01 0.000e+00 -5.381e-14 -1.920e-04
1.889e+00 3.777e-01 0.000e+00 -4.807e-14 -1.757e-04
2.078e+00 3.777e-01 0.000e+00 -7.656e-14 -1.642e-04
2.266e+00 3.777e-01 0.000e+00 -6.309e-14 -1.582e-04
2.455e+00 3.777e-01 0.000e+00 -5.709e-14 -1.582e-04
2.644e+00 3.777e-01 0.000e+00 -6.052e-14 -1.642e-04
2.833e+00 3.777e-01 0.000e+00 -4.901e-14 -1.757e-04
3.022e+00 3.777e-01 0.000e+00 -6.252e-14 -1.920e-04
3.211e+00 3.777e-01 0.000e+00 -5.832e-14 -2.120e-04
3.400e+00 3.777e-01 0.000e+00 -4.778e-14 -2.344e-04
3.589e+00 3.777e-01 0.000e+00 -3.565e-14 -2.581e-04
3.777e+00 3.777e-01 0.000e+00 -4.661e-14 -2.816e-04
3.966e+00 3.777e-01 0.000e+00 -4.426e-14 -3.036e-04
4.155e+00 3.777e-01 0.000e+00 -6.751e-14 -3.226e-04
4.344e+00 3.777e-01 0.000e+00 -5.466e-14 -3.374e-04
4.533e+00 3.777e-01 0.000e+00 -5.404e-14 -3.468e-04
0.000e+00 5.666e-01 0.000e+00 -5.555e-14 -3.500e-04
1.889e-01 5.666e-01 0.000e+00 -5.222e-14 -3.468e-04
3.777e-01 5.666e-01 0.000e+00 -5.487e-14 -3.374e-04
5.666e-01 5.666e-01 0.000e+00 -5.670e-14 -3.226e-04
7.555e-01 5.666e-01 0.000e+00 -5.784e-14 -3.036e-04
9.443e-01 5.666e-01 0.000e+00 -5.341e-14 -2.816e-04
1.133e+00 5.666e-01 0.000e+00 -5.447e-14 -2.581e-04
1.322e+00 5.666e-01 0.000e+00 -5.725e-14 -2.344e-04
1.511e+00 5.666e-01 0.000e+00 -6.390e-14 -2.120e-04
1.700e+00 5.666e-01 0.000e+00 -5.381e-14 -1.920e-04
1.889e+00 5.666e-01 0.000e+00 -4.807e-14 -1.757e-04
2.078e+00 5.666e-01 0.000e+00 -7.656e-14 -1.642e-04
2.266e+00 5.666e-01 0.000e+00 -6.309e-14 -1.582e-04
2.455e+00 5.666e-01 0.000e+00 -5.709e-14 -1.582e-04
2.644e+00 5.666e-01 0.000e+00 -6.052e-14 -1.642e-04
2.833e+00 5.666e-01 0.000e+00 -4.901e-14 -1.757e-04
3.022e+00 5.666e-01 0.000e+00 -6.252e-14 -1.920e-04
3.211e+00 5.666e-01 0.000e+00 -5.832e-14 -2.120e-04
3.400e+00 5.666e-01 0.000e+00 -4.778e-14 -2.344e-04
3.589e+00 5.666e-01 0.000e+00 -3.565e-14 -2.581e-04
3.777e+00 5.666e-01 0.000e+00 -4.661e-14 -2.816e-04
3.966e+00 5.666e-01 0.000e+00 -4.426e-14 -3.036e-04
4.155e+00 5.666e-01 0.000e+00 -6.751e-14 -3.226e-04
4.344e+00 5.666e-01 0.000e+00 -5.466e-14 -3.374e-04
4.533e+00 5.666e-01 0.000e+00 -5.404e-14 -3.468e-04
0.000e+00 7.555e-01 0.000e+00 -5.555e-14 -3.500e-04
1.889e-01 7.555e-01 0.000e+00 -5.222e-14 -3.468e-04
3.777e-01 7.555e-01 0.000e+00 -5.487e-14 -3.374e-04
5.666e-01 7.555e-01 0.000e+00 -5.670e-14 -3.226e-04
7.555e-01 7.555e-01 0.000e+00 -5.784e-14 -3.036e-04
9.443e-01 7.555e-01 0.000e+00 -5.341e-14 -2.816e-04
1.133e+00 7.555e-01 0.000e+00 -5.447e-14 -2.581e-04
1.322e+00 7.555e-01 0.000e+00 -5.725e-14 -2.344e-04
1.511e+00 7.555e-01 0.000e+00 -6.390e-14 -2.120e-04
1.700e+00 7.555e-01 0.000e+00 -5.381e-14 -1.920e-04
1.889e+00 7.555e-01 0.000e+00 -4.807e-14 -1.757e-04
2.078e+00 7.555e-01 0.000e+00 -7.656e-14 -1.642e-04
2.266e+00 7.555e-01 0.000e+00 -6.309e-14 -1.582e-04
2.455e+00 7.555e-01 0.000e+00 -5.709e-14 -1.582e-04
2.644e+00 7.555e-01 0.000e+00 -6.052e-14 -1.642e-04
2.833e+00 7.555e-01 0.000e+00 -4.901e-14 -1.757e-04
3.022e+00 7.555e-01 0.000e+00 -6.252e-14 -1.920e-04
3.211e+00 7.555e-01 0.000e+00 -5.832e-14 -2.120e-04
3.400e+00 7.555e-01 0.000e+00 -4.778e-14 -2.344e-04
3.589e+00 7.555e-01 0.000e+00 -3.565e-14 -2.581e-04
3.777e+00 7.555e-01 0.000e+00 -4.661e-14 -2.816e-04
3.966e+00 7.555e-01 0.000e+00 -4.426e-14 -3.036e-04
4.155e+00 7.555e-01 0.000e+00 -6.751e-14 -3.226e-04
4.344e+00 7.555e-01 0.000e+00 -5.466e-14 -3.374e-04
4.533e+00 7.555e-01 0.000e+00 -5.404e-14 -3.468e-04
0.000e+00 9.443e-01 0.000e+00 -5.555e-14 -3.500e-04
1.889e-01 9.443e-01 0.000e+00 -5.222e-14 -3.468e-04
3.777e-01 9.443e-01 0.000e+00 -5.487e-14 -3.374e-04
5.666e-01 9.443e-01 0.000e+00 -5.670e-14 -3.226e-04
7.555e-01 9.443e-01 0.000e+00 -5.784e-14 -3.036e-04
9.443e-01 9.443e-01 0.000e+00 -5.341e-14 -2.816e-04
1.133e+00 9.443e-01 0.000e+00 -5.447e-14 -2.581e-04
1.322e+00 9.443e-01 0.000e+00 -5.725e-14 -2.344e-04
1.511e+00 9.443e-01 0.000e+00 -6.390e-14 -2.120e-04
1.700e+00 9.443e-01 0.000e+00 -5.381e-14 -1.920e-04
1.889e+00 9.443e-01 0.000e+00 -4.807e-14 -1.757e-04
2.078e+00 9.443e-01 0.000e+00 -7.656e-14 -1.642e-04
2.266e+00 9.443e-01 0.000e+00 -6.309e-14 -1.582e-04
2.455e+00 9.443e-01 0.000e+00 -5.709e-14 -1.582e-04
2.644e+00 9.443e-01 0.000e+00 -6.052e-14 -1.642e-04
2.833e+00 9.443e-01 0.000e+00 -4.901e-14 -1.757e-04
3.022e+00 9.443e-01 0.000e+00 -6.252e-14 -1.920e-04
3.211e+00 9.443e-01 0.000e+00 -5.832e-14 -2.120e-04
3.400e+00 9.443e-01 0.000e+00 -4.778e-14 -2.344e-04
3.589e+00 9.443e-01 0.000e+00 -3.565e-14 -2.581e-04
3.777e+00 9.443e-01 0.000e+00 -4.661e-14 -2.816e-04
3.966e+00 9.443e-01 0.000e+00 -4.426e-14 -3.036e-04
4.155e+00 9.443e-01 0.000e+00 -6.751e-14 -3.226e-04
4.344e+00 9.443e-01 0.000e+00 -5.466e-14 -3.374e-04
4.533e+00 9.443e-01 0.000e+00 -5.404e-14 -3.468e-04
0.000e+00 1.133e+00 0.000e+00 -5.555e-14 -3.500e-04
1.889e-01 1.133e+00 0.000e+00 -5.222e-14 -3.468e-04
3.777e-01 1.133e+00 0.000e+00 -5.487e-14 -3.374e-04
5.666e-01 1.133e+00 0.000e+00 -5.670e-14 -3.226e-04
7.555e-01 1.133e+00 0.000e+00 -5.784e-14 -3.036e-04
9.443e-01 1.133e+00 0.000e+00 -5.341e-14 -2.816e-04
1.133e+00 1.133e+00 0.000e+00 -5.447e-14 -2.581e-04
1.322e+00 1.133e+00 0.000e+00 -5.725e-14 -2.344e-04
1.511e+00 1.133e+00 0.000e+00 -6.390e-14 -2.120e-04
1.700e+00 1.133e+00 0.000e+00 -5.381e-14 -1.920e-04
1.889e+00 1.133e+00 0.000e+00 -4.807e-14 -1.757e-04
2.078e+00 1.133e+00 0.000e+00 -7.656e-14 -1.642e-04
2.266e+00 1.133e+00 0.000e+00 -6.309e-14 -1.582e-04
2.455e+00 1.133e+00 0.000e+00 -5.709e-14 -1.582e-04
2.644e+00 1.133e+00 0.000e+00 -6.052e-14 -1.642e-04
2.833e+00 1.133e+00 0.000e+00 -4.901e-14 -1.757e-04
3.022e+00 1.133e+00 0.000e+00 -6.252e-14 -1.920e-04
3.211e+00 1.133e+00 0.000e+00 -5.832e-14 -2.120e-04
3.400e+00 1.133e+00 0.000e+00 -4.778e-14 -2.344e-04
3.589e+00 1.133e+00 0.000e+00 -3.565e-14 -2.581e-04
3.777e+00 1.133e+00 0.000e+00 -4.661e-14 -2.816e-04
3.966e+00 1.133e+00 0.000e+00 -4.426e-14 -3.036e-04
4.155e+00 1.133e+00 0.000e+00 -6.751e-14 -3.226e-04
4.344e+00 1.133e+00 0.000e+00 -5.466e-14 -3.374e-04
4.533e+00 1.133e+00 0.000e+00 -5.404e-14 -3.468e-04
0.000e+00 1.322e+00 0.000e+00 -5.555e-14 -3.500e-04
1.889e-01 1.322e+00 0.000e+00 -5.222e-14 -3.468e-04
3.777e-01 1.322e+00 0.000e+00 -5.487e-14 -3.374e-04
5.666e-01 1.322e+00 0.000e+00 -5.670e-14 -3.226e-04
7.555e-01 1.322e+00 0.000e+00 -5.784e-14 -3.036e-04
9.443e-01 1.322e+00 0.000e+00 -5.341e-14 -2.816e-04
1.133e+00 1.322e+00 0.000e+00 -5.447e-14 -2.581e-04
1.322e+00 1.322e+00 0.000e+00 -5.725e-14 -2.344e-04
1.511e+00 1.322e+00 0.000e+00 -6.390e-14 -2.120e-04
1.700e+00 1.322e+00 0.000e+00 -5.381e-14 -1.920e-04
1.889e+00 1.322e+00 0.000e+00 -4.807e-14 -1.757e-04
2.078e+00 1.322e+00 0.000e+00 -7.656e-14 -1.642e-04
2.266e+00 1.322e+00 0.000e+00 -6.309e-14 -1.582e-04
2.455e+00 1.322e+00 0.000e+00 -5.709e-14 -1.582e-04
2.644e+00 1.322e+00 0.000e+00 -6.052e-14 -1.642e-04
2.833e+00 1.322e+00 0.000e+00 -4.901e-14 -1.757e-04
3.022e+00 1.322e+00 0.000e+00 -6.252e-14 -1.920e-04
3.211e+00 1.322e+00 0.000e+00 -5.832e-14 -2.120e-04
3.400e+00 1.322e+00 0.000e+00 -4.778e-14 -2.344e-04
3.589e+00 1.322e+00 0.000e+00 -3.565e-14 -2.581e-04
3.777e+00 1.322e+00 0.000e+00 -4.661e-14 -2.816e-04
3.966e+00 1.322e+00 0.000e+00 -4.426e-14 -3.036e-04
4.155e+00 1.322e+00 0.000e+00 -6.751e-14 -3.226e-04
4.344e+00 1.322e+00 0.000e+00 -5.466e-14 -3.374e-04
4.533e+00 1.322e+00 0.000e+00 -5.404e-14 -3.468e-04
0.000e+00 1.511e+00 0.000e+00 -5.555e-14 -3.500e-04
1.889e-01 1.511e+00 0.000e+00 -5.222e-14 -3.468e-04
3.777e-01 1.511e+00 0.000e+00 -5.487e-14 -3.374e-04
5.666e-01 1.511e+00 0.000e+00 -5.670e-14 -3.226e-04
7.555e-01 1.511e+00 0.000e+00 -5.784e-14 -3.036e-04
9.443e-01 1.511e+00 0.000e+00 -5.341e-14 -2.816e-04
1.133e+00 1.511e+00 0.000e+00 -5.447e-14 -2.581e-04
1.322e+00 1.511e+00 0.000e+00 -5.725e-14 -2.344e-04
1.511e+00 1.511e+00 0.000e+00 -6.390e-14 -2.120e-04
1.700e+00 1.511e+00 0.000e+00 -5.381e-14 -1.920e-04
1.889e+00 1.511e+00 0.000e+00 -4.807e-14 -1.757e-04
2.078e+00 1.511e+00 0.000e+00 -7.656e-14 -1.642e-04
2.266e+00 1.511e+00 0.000e+00 -6.309e-14 -1.582e-04
2.455e+00 1.511e+00 0.000e+00 -5.709e-14 -1.582e-04
2.644e+00 1.511e+00 0.000e+00 -6.052e-14 -1.642e-04
2.833e+00 1.511e+00 0.000e+00 -4.901e-14 -1.757e-04
3.022e+00 1.511e+00 0.000e+00 -6.252e-14 -1.920e-04
3.211e+00 1.511e+00 0.000e+00 -5.832e-14 -2.120e-04
3.400e+00 1.511e+00 0.000e+00 -4.778e-14 -2.344e-04
3.589e+00 1.511e+00 0.000e+00 -3.565e-14 -2.581e-04
3.777e+00 1.511e+00 0.000e+00 -4.661e-14 -2.816e-04
3.966e+00 1.511e+00 0.000e+00 -4.426e-14 -3.036e-04
4.155e+00 1.511e+00 0.000e+00 -6.751e-14 -3.226e-04
4.344e+00 1.511e+00 0.000e+00 -5.466e-14 -3.374e-04
4.533e+00 1.511e+00 0.000e+00 -5.404e-14 -3.468e-04
0.000e+00 1.700e+00 0.000e+00 -5.555e-14 -3.500e-04
1.889e-01 1.700e+00 0.000e+00 -5.222e-14 -3.468e-04
3.777e-01 1.700e+00 0.000e+00 -5.487e-14 -3.374e-04
5.666e-01 1.700e+00 0.000e+00 -5.670e-14 -3.226e-04
7.555e-01 1.700e+00 0.000e+00 -5.784e-14 -3.036e-04
9.443e-01 1.700e+00 0.000e+00 -5.341e-14 -2.816e-04
1.133e+00 1.700e+00 0.000e+00 -5.447e-14 -2.581e-04
1.322e+00 1.700e+00 0.000e+00 -5.725e-14 -2.344e-04
1.511e+00 1.700e+00 0.000e+00 -6.390e-14 -2.120e-04
1.700e+00 1.700e+00 0.000e+00 -5.381e-14 -1.920e-04
1.889e+00 1.700e+00 0.000e+00 -4.807e-14 -1.757e-04
2.078e+00 1.700e+00 0.000e+00 -7.656e-14 -1.642e-04
2.266e+00 1.700e+00 0.000e+00 -6.309e-14 -1.582e-04
2.455e+00 1.700e+00 0.000e+00 -5.709e-14 -1.582e-04
2.644e+00 1.700e+00 0.000e+00 -6.052e-14 -1.642e-04
2.833e+00 1.700e+00 0.000e+00 -4.901e-14 -1.757e-04
3.022e+00 1.700e+00 0.000e+00 -6.252e-14 -1.920e-04
3.211e+00 1.700e+00 0.000e+00 -5.832e-14 -2.120e-04
3.400e+00 1.700e+00 0.000e+00 -4.778e-14 -2.344e-04
3.589e+00 1.700e+00 0.000e+00 -3.565e-14 -2.581e-04
3.777e+00 1.700e+00 0.000e+00 -4.661e-14 -2.816e-04
3.966e+00 1.700e+00 0.000e+00 -4.426e-14 -3.036e-04
4.155e+00 1.700e+00 0.000e+00 -6.751e-14 -3.226e-04
4.344e+00 1.700e+00 0.000e+00 -5.466e-14 -3.374e-04
4.533e+00 1.700e+00 0.000e+00 -5.404e-14 -3.468e-04
0.000e+00 1.889e+00 0.000e+00 -5.555e-14 -3.500e-04
1.889e-01 1.889e+00 0.000e+00 -5.222e-14 -3.468e-04
3.777e-01 1.889e+00 0.000e+00 -5.487e-14 -3.374e-04
5.666e-01 1.889e+00 0.000e+00 -5.670e-14 -3.226e-04
7.555e-01 1.889e+00 0.000e+00 -5.784e-14 -3.036e-04
9.443e-01 1.889e+00 0.000e+00 -5.341e-14 -2.816e-04
1.133e+00 1.889e+00 0.000e+00 -5.447e-14 -2.581e-04
1.322e+00 1.889e+00 0.000e+00 -5.725e-14 -2.344e-04
1.511e+00 1.889e+00 0.000e+00 -6.390e-14 -2.120e-04
1.700e+00 1.889e+00 0.000e+00 -5.381e-14 -1.920e-04
1.889e+00 1.889e+00 0.000e+00 -4.807e-14 -1.757e-04
2.078e+00 1.889e+00 0.000e+00 -7.656e-14 -1.642e-04
2.266e+00 1.889e+00 0.000e+00 -6.309e-14 -1.582e-04
2.455e+00 1.889e+00 0.000e+00 -5.709e-14 -1.582e-04
2.644e+00 1.889e+00 0.000e+00 -6.052e-14 -1.642e-04
2.833e+00 1.889e+00 0.000e+00 -4.901e-14 -1.757e-04
3.022e+00 1.889e+00 0.000e+00 -6.252e-14 -1.920e-04
3.211e+00 1.889e+00 0.000e+00 -5.832e-14 -2.120e-04
3.400e+00 1.889e+00 0.000e+00 -4.778e-14 -2.344e-04
3.589e+00 1.889e+00 0.000e+00 -3.565e-14 -2.581e-04
3.777e+00 1.889e+00 0.000e+00 -4.661e-14 -2.816e-04
3.966e+00 1.889e+00 0.000e+00 -4.426e-14 -3.036e-04
4.155e+00 1.889e+00 0.000e+00 -6.751e-14 -3.226e-04
4.344e+00 1.889e+00 0.000e+00 -5.466e-14 -3.374e-04
4.533e+00 1.889e+00 0.000e+00 -5.404e-14 -3.468e-04
0.000e+00 2.078e+00 0.000e+00 -5.555e-14 -3.500e-04
1.889e-01 2.078e+00 0.000e+00 -5.222e-14 -3.468e-04
3.777e-01 2.078e+00 0.000e+00 -5.487e-14 -3.374e-04
5.666e-01 2.078e+00 0.000e+00 -5.670e-14 -3.226e-04
7.555e-01 2.078e+00 0.000e+00 -5.784e-14 -3.036e-04
9.443e-01 2.078e+00 0.000e+00 -5.341e-14 -2.816e-04
1.133e+00 2.078e+00 0.000e+00 -5.447e-14 -2.581e-04
1.322e+00 2.078e+00 0.000e+00 -5.725e-14 -2.344e-04
1.511e+00 2.078e+00 0.000e+00 -6.390e-14 -2.120e-04
1.700e+00 2.078e+00 0.000e+00 -5.381e-14 -1.920e-04
1.889e+00 2.078e+00 0.000e+00 -4.807e-14 -1.757e-04
2.078e+00 2.078e+00 0.000e+00 -7.656e-14 -1.642e-04
2.266e+00 2.078e+00 0.000e+00 -6.309e-14 -1.582e-04
2.455e+00 2.078e+00 0.000e+00 -5.709e-14 -1.582e-04
2.644e+00 2.078e+00 0.000e+00 -6.052e-14 -1.642e-04
2.833e+00 2.078e+00 0.000e+00 -4.901e-14 -1.757e-04
3.022e+00 2.078e+00 0.000e+00 -6.252e-14 -1.920e-04
3.211e+00 2.078e+00 0.000e+00 -5.832e-14 -2.120e-04
3.400e+00 2.078e+00 0.000e+00 -4.778e-14 -2.344e-04
3.589e+00 2.078e+00 0.000e+00 -3.565e-14 -2.581e-04
3.777e+00 2.078e+00 0.000e+00 -4.661e-14 -2.816e-04
3.966e+00 2.078e+00 0.000e+00 -4.426e-14 -3.036e-04
4.155e+00 2.078e+00 0.000e+00 -6.751e-14 -3.226e-04
4.344e+00 2.078e+00 0.000e+00 -5.466e-14 -3.374e-04
4.533e+00 2.078e+00 0.000e+00 -5.404e-14 -3.468e-04
0.000e+00 2.266e+00 0.000e+00 -5.555e-14 -3.500e-04
1.889e-01 2.266e+00 0.000e+00 -5.222e-14 -3.468e-04
3.777e-01 2.266e+00 0.000e+00 -5.487e-14 -3.374e-04
5.666e-01 2.266e+00 0.000e+00 -5.670e-14 -3.226e-04
7.555e-01 2.266e+00 0.000e+00 -5.784e-14 -3.036e-04
9.443e-01 2.266e+00 0.000e+00 -5.341e-14 -2.816e-04
1.133e+00 2.266e+00 0.000e+00 -5.447e-14 -2.581e-04
1.322e+00 2.266e+00 0.000e+00 -5.725e-14 -2.344e-04
1.511e+00 2.266e+00 0.000e+00 -6.390e-14 -2.120e-04
1.700e+00 2.266e+00 0.000e+00 -5.381e-14 -1.920e-04
1.889e+00 2.266e+00 0.000e+00 -4.807e-14 -1.757e-04
2.078e+00 2.266e+00 0.000e+00 -7.656e-14 -1.642e-04
2.266e+00 2.266e+00 0.000e+00 -6.309e-14 -1.582e-04
2.455e+00 2.266e+00 0.000e+00 -5.709e-14 -1.582e-04
2.644e+00 2.266e+00 0.000e+00 -6.052e-14 -1.642e-04
2.833e+00 2.266e+00 0.000e+00 -4.901e-14 -1.757e-04
3.022e+00 2.266e+00 0.000e+00 -6.252e-14 -1.920e-04
3.211e+00 2.266e+00 0.000e+00 -5.832e-14 -2.120e-04
3.400e+00 2.266e+00 0.000e+00 -4.778e-14 -2.344e-04
3.589e+00 2.266e+00 0.000e+00 -3.565e-14 -2.581e-04
3.777e+00 2.266e+00 0.000e+00 -4.661e-14 -2.816e-04
3.966e+00 2.266e+00 0.000e+00 -4.426e-14 -3.036e-04
4.155e+00 2.266e+00 0.000e+00 -6.751e-14 -3.226e-04
4.344e+00 2.266e+00 0.000e+00 -5.466e-14 -3.374e-04
4.533e+00 2.266e+00 0.000e+00 -5.404e-14 -3.468e-04
0.000e+00 2.455e+00 0.000e+00 -5.555e-14 -3.500e-04
1.889e-01 2.455e+00 0.000e+00 -5.222e-14 -3.468e-04
3.777e-01 2.455e+00 0.000e+00 -5.487e-14 -3.374e-04
5.666e-01 2.455e+00 0.000e+00 -5.670e-14 -3.226e-04
7.555e-01 2.455e+00 0.000e+00 -5.784e-14 -3.036e-04
9.443e-01 2.455e+00 0.000e+00 -5.341e-14 -2.816e-04
1.133e+00 2.455e+00 0.000e+00 -5.447e-14 -2.581e-04
1.322e+00 2.455e+00 0.000e+00 -5.725e-14 -2.344e-04
1.511e+00 2.455e+00 0.000e+00 -6.390e-14 -2.120e-04
1.700e+00 2.455e+00 0.000e+00 -5.381e-14 -1.920e-04
1.889e+00 2.455e+00 0.000e+00 -4.807e-14 -1.757e-04
2.078e+00 2.455e+00 0.000e+00 -7.656e-14 -1.642e-04
2.266e+00 2.455e+00 0.000e+00 -6.309e-14 -1.582e-04
2.455e+00 2.455e+00 0.000e+00 -5.709e-14 -1.582e-04
2.644e+00 2.455e+00 0.000e+00 -6.052e-14 -1.642e-04
2.833e+00 2.455e+00 0.000e+00 -4.901e-14 -1.757e-04
3.022e+00 2.455e+00 0.000e+00 -6.252e-14 -1.920e-04
3.211e+00 2.455e+00 0.000e+00 -5.832e-14 -2.120e-04
3.400e+00 2.455e+00 0.000e+00 -4.778e-14 -2.344e-04
3.589e+00 2.455e+00 0.000e+00 -3.565e-14 -2.581e-04
3.777e+00 2.455e+00 0.000e+00 -4.661e-14 -2.816e-04
3.966e+00 2.455e+00 0.000e+00 -4.426e-14 -3.036e-04
4.155e+00 2.455e+00 0.000e+00 -6.751e-14 -3.226e-04
4.344e+00 2.455e+00 0.000e+00 -5.466e-14 -3.374e-04
4.533e+00 2.455e+00 0.000e+00 -5.404e-14 -3.468e-04
0.000e+00 2.644e+00 0.000e+00 -5.555e-14 -3.500e-04
1.889e-01 2.644e+00 0.000e+00 -5.222e-14 -3.468e-04
3.777e-01 2.644e+00 0.000e+00 -5.487e-14 -3.374e-04
5.666e-01 2.644e+00 0.000e+00 -5.670e-14 -3.226e-04
7.555e-01 2.644e+00 0.000e+00 -5.784e-14 -3.036e-04
9.443e-01 2.644e+00 0.000e+00 -5.341e-14 -2.816e-04
1.133e+00 2.644e+00 0.000e+00 -5.447e-14 -2.581e-04
1.322e+00 2.644e+00 0.000e+00 -5.725e-14 -2.344e-04
1.511e+00 2.644e+00 0.000e+00 -6.390e-14 -2.120e-04
1.700e+00 2.644e+00 0.000e+00 -5.381e-14 -1.920e-04
1.889e+00 2.644e+00 0.000e+00 -4.807e-14 -1.757e-04
2.078e+00 2.644e+00 0.000e+00 -7.656e-14 -1.642e-04
2.266e+00 2.644e+00 0.000e+00 -6.309e-14 -1.582e-04
2.455e+00 2.644e+00 0.000e+00 -5.709e-14 -1.582e-04
2.644e+00 2.644e+00 0.000e+00 -6.052e-14 -1.642e-04
2.833e+00 2.644e+00 0.000e+00 -4.901e-14 -1.757e-04
3.022e+00 2.644e+00 0.000e+00 -6.252e-14 -1.920e-04
3.211e+00 2.644e+00 0.000e+00 -5.832e-14 -2.120e-04
3.400e+00 2.644e+00 0.000e+00 -4.778e-14 -2.344e-04
3.589e+00 2.644e+00 0.000e+00 -3.565e-14 -2.581e-04
3.777e+00 2.644e+00 0.000e+00 -4.661e-14 -2.816e-04
3.966e+00 2.644e+00 0.000e+00 -4.426e-14 -3.036e-04
4.155e+00 2.644e+00 0.000e+00 -6.751e-14 -3.226e-04
4.344e+00 2.644e+00 0.000e+00 -5.466e-14 -3.374e-04
4.533e+00 2.644e+00 0.000e+00 -5.404e-14 -3.468e-04
0.000e+00 2.833e+00 0.000e+00 -5.555e-14 -3.500e-04
1.889e-01 2.833e+00 0.000e+00 -5.222e-14 -3.468e-04
3.777e-01 2.833e+00 0.000e+00 -5.487e-14 -3.374e-04
5.666e-01 2.833e+00 0.000e+00 -5.670e-14 -3.226e-04
7.555e-01 2.833e+00 0.000e+00 -5.784e-14 -3.036e-04
9.443e-01 2.833e+00 0.000e+00 -5.341e-14 -2.816e-04
1.133e+00 2.833e+00 0.000e+00 -5.447e-14 -2.581e-04
1.322e+00 2.833e+00 0.000e+00 -5.725e-14 -2.344e-04
1.511e+00 2.833e+00 0.000e+00 -6.390e-14 -2.120e-04
1.700e+00 2.833e+00 0.000e+00 -5.381e-14 -1.920e-04
1.889e+00 2.833e+00 0.000e+00 -4.807e-14 -1.757e-04
2.078e+00 2.833e+00 0.000e+00 -7.656e-14 -1.642e-04
2.266e+00 2.833e+00 0.000e+00 -6.309e-14 -1.582e-04
2.455e+00 2.833e+00 0.000e+00 -5.709e-14 -1.582e-04
2.644e+00 2.833e+00 0.000e+00 -6.052e-14 -1.642e-04
2.833e+00 2.833e+00 0.000e+00 -4.901e-14 -1.757e-04
3.022e+00 2.833e+00 0.000e+00 -6.252e-14 -1.920e-04
3.211e+00 2.833e+00 0.000e+00 -5.832e-14 -2.120e-04
3.400e+00 2.833e+00 0.000e+00 -4.778e-14 -2.344e-04
3.589e+00 2.833e+00 0.000e+00 -3.565e-14 -2.581e-04
3.777e+00 2.833e+00 0.000e+00 -4.661e-14 -2.816e-04
3.966e+00 2.833e+00 0.000e+00 -4.426e-14 -3.036e-04
4.155e+00 2.833e+00 0.000e+00 -6.751e-14 -3.226e-04
4.344e+00 2.833e+00 0.000e+00 -5.466e-14 -3.374e-04
4.533e+00 2.833e+00 0.000e+00 -5.404e-14 -3.468e-04
0.000e+00 3.022e+00 0.000e+00 -5.555e-14 -3.500e-04
1.889e-01 3.022e+00 0.000e+00 -5.222e-14 -3.468e-04
3.777e-01 3.022e+00 0.000e+00 -5.487e-14 -3.374e-04
5.666e-01 3.022e+00 0.000e+00 -5.670e-14 -3.226e-04
7.555e-01 3.022e+00 0.000e+00 -5.784e-14 -3.036e-04
9.443e-01 3.022e+00 0.000e+00 -5.341e-14 -2.816e-04
1.133e+00 3.022e+00 0.000e+00 -5.447e-14 -2.581e-04
1.322e+00 3.022e+00 0.000e+00 -5.725e-14 -2.344e-04
1.511e+00 3.022e+00 0.000e+00 -6.390e-14 -2.120e-04
1.700e+00 3.022e+00 0.000e+00 -5.381e-14 -1.920e-04
1.889e+00 3.022e+00 0.000e+00 -4.807e-14 -1.757e-04
2.078e+00 3.022e+00 0.000e+00 -7.656e-14 -1.642e-04
2.266e+00 3.022e+00 0.000e+00 -6.309e-14 -1.582e-04
2.455e+00 3.022e+00 0.000e+00 -5.709e-14 -1.582e-04
2.644e+00 3.022e+00 0.000e+00 -6.052e-14 -1.642e-04
2.833e+00 3.022e+00 0.000e+00 -4.901e-14 -1.757e-04
3.022e+00 3.022e+00 0.000e+00 -6.252e-14 -1.920e-04
3.211e+00 3.022e+00 0.000e+00 -5.832e-14 -2.120e-04
3.400e+00 3.022e+00 0.000e+00 -4.778e-14 -2.344e-04
3.589e+00 3.022e+00 0.000e+00 -3.565e-14 -2.581e-04
3.777e+00 3.022e+00 0.000e+00 -4.661e-14 -2.816e-04
3.966e+00 3.022e+00 0.000e+00 -4.426e-14 -3.036e-04
4.155e+00 3.022e+00 0.000e+00 -6.751e-14 -3.226e-04
4.344e+00 3.022e+00 0.000e+00 -5.466e-14 -3.374e-04
4.533e+00 3.022e+00 0.000e+00 -5.404e-14 -3.468e-04
0.000e+00 3.211e+00 0.000e+00 -5.555e-14 -3.500e-04
1.889e-01 3.211e+00 0.000e+00 -5.222e-14 -3.468e-04
3.777e-01 3.211e+00 0.000e+00 -5.487e-14 -3.374e-04
5.666e-01 3.211e+00 0.000e+00 -5.670e-14 -3.226e-04
7.555e-01 3.211e+00 0.000e+00 -5.784e-14 -3.036e-04
9.443e-01 3.211e+00 0.000e+00 -5.341e-14 -2.816e-04
1.133e+00 3.211e+00 0.000e+00 -5.447e-14 -2.581e-04
1.322e+00 3.211e+00 0.000e+00 -5.725e-14 -2.344e-04
1.511e+00 3.211e+00 0.000e+00 -6.390e-14 -2.120e-04
1.700e+00 3.211e+00 0.000e+00 -5.381e-14 -1.920e-04
1.889e+00 3.211e+00 0.000e+00 -4.807e-14 -1.757e-04
2.078e+00 3.211e+00 0.000e+00 -7.656e-14 -1.642e-04
2.266e+00 3.211e+00 0.000e+00 -6.309e-14 -1.582e-04
2.455e+00 3.211e+00 0.000e+00 -5.709e-14 -1.582e-04
2.644e+00 3.211e+00 0.000e+00 -6.052e-14 -1.642e-04
2.833e+00 3.211e+00 0.000e+00 -4.901e-14 -1.757e-04
3.022e+00 3.211e+00 0.000e+00 -6.252e-14 -1.920e-04
3.211e+00 3.211e+00 0.000e+00 -5.832e-14 -2.120e-04
3.400e+00 3.211e+00 0.000e+00 -4.778e-14 -2.344e-04
3.589e+00 3.211e+00 0.000e+00 -3.565e-14 -2.581e-04
3.777e+00 3.211e+00 0.000e+00 -4.661e-14 -2.816e-04
3.966e+00 3.211e+00 0.000e+00 -4.426e-14 -3.036e-04
4.155e+00 3.211e+00 0.000e+00 -6.751e-14 -3.226e-04
4.344e+00 3.211e+00 0.000e+00 -5.466e-14 -3.374e-04
4.533e+00 3.211e+00 0.000e+00 -5.404e-14 -3.468e-04
0.000e+00 3.400e+00 0.000e+00 -5.555e-14 -3.500e-04
1.889e-01 3.400e+00 0.000e+00 -5.222e-14 -3.468e-04
3.777e-01 3.400e+00 0.000e+00 -5.487e-14 -3.374e-04
5.666e-01 3.400e+00 0.000e+00 -5.670e-14 -3.226e-04
7.555e-01 3.400e+00 0.000e+00 -5.784e-14 -3.036e-04
9.443e-01 3.400e+00 0.000e+00 -5.341e-14 -2.816e-04
1.133e+00 3.400e+00 0.000e+00 -5.447e-14 -2.581e-04
1.322e+00 3.400e+00 0.000e+00 -5.725e-14 -2.344e-04
1.511e+00 3.400e+00 0.000e+00 -6.390e-14 -2.120e-04
1.700e+00 3.400e+00 0.000e+00 -5.381e-14 -1.920e-04
1.889e+00 3.400e+00 0.000e+00 -4.807e-14 -1.757e-04
2.078e+00 3.400e+00 0.000e+00 -7.656e-14 -1.642e-04
2.266e+00 3.400e+00 0.000e+00 -6.309e-14 -1.582e-04
2.455e+00 3.400e+00 0.000e+00 -5.709e-14 -1.582e-04
2.644e+00 3.400e+00 0.000e+00 -6.052e-14 -1.642e-04
2.833e+00 3.400e+00 0.000e+00 -4.901e-14 -1.757e-04
3.022e+00 3.400e+00 0.000e+00 -6.252e-14 -1.920e-04
3.211e+00 3.400e+00 0.000e+00 -5.832e-14 -2.120e-04
3.400e+00 3.400e+00 0.000e+00 -4.778e-14 -2.344e-04
3.589e+00 3.400e+00 0.000e+00 -3.565e-14 -2.581e-04
3.777e+00 3.400e+00 0.000e+00 -4.661e-14 -2.816e-04
3.966e+00 3.400e+00 0.000e+00 -4.426e-14 -3.036e-04
4.155e+00 3.400e+00 0.000e+00 -6.751e-14 -3.226e-04
4.344e+00 3.400e+00 0.000e+00 -5.466e-14 -3.374e-04
4.533e+00 3.400e+00 0.000e+00 -5.404e-14 -3.468e-04
0.000e+00 3.589e+00 0.000e+00 -5.555e-14 -3.500e-04
1.889e-01 3.589e+00 0.000e+00 -5.222e-14 -3.468e-04
3.777e-01 3.589e+00 0.000e+00 -5.487e-14 -3.374e-04
5.666e-01 3.589e+00 0.000e+00 -5.670e-14 -3.226e-04
7.555e-01 3.589e+00 0.000e+00 -5.784e-14 -3.036e-04
9.443e-01 3.589e+00 0.000e+00 -5.341e-14 -2.816e-04
1.133e+00 3.589e+00 0.000e+00 -5.447e-14 -2.581e-04
1.322e+00 3.589e+00 0.000e+00 -5.725e-14 -2.344e-04
1.511e+00 3.589e+00 0.000e+00 -6.390e-14 -2.120e-04
1.700e+00 3.589e+00 0.000e+00 -5.381e-14 -1.920e-04
1.889e+00 3.589e+00 0.000e+00 -4.807e-14 -1.757e-04
2.078e+00 3.589e+00 0.000e+00 -7.656e-14 -1.642e-04
2.266e+00 3.589e+00 0.000e+00 -6.309e-14 -1.582e-04
2.455e+00 3.589e+00 0.000e+00 -5.709e-14 -1.582e-04
2.644e+00 3.589e+00 0.000e+00 -6.052e-14 -1.642e-04
2.833e+00 3.589e+00 0.000e+00 -4.901e-14 -1.757e-04
3.022e+00 3.589e+00 0.000e+00 -6.252e-14 -1.920e-04
3.211e+00 3.589e+00 0.000e+00 -5.832e-14 -2.120e-04
3.400e+00 3.589e+00 0.000e+00 -4.778e-14 -2.344e-04
3.589e+00 3.589e+00 0.000e+00 -3.565e-14 -2.581e-04
3.777e+00 3.589e+00 0.000e+00 -4.661e-14 -2.816e-04
3.966e+00 3.589e+00 0.000e+00 -4.426e-14 -3.036e-04
4.155e+00 3.589e+00 0.000e+00 -6.751e-14 -3.226e-04
4.344e+00 3.589e+00 0.000e+00 -5.466e-14 -3.374e-04
4.533e+00 3.589e+00 0.000e+00 -5.404e-14 -3.468e-04
0.000e+00 3.777e+00 0.000e+00 -5.555e-14 -3.500e-04
1.889e-01 3.777e+00 0.000e+00 -5.222e-14 -3.468e-04
3.777e-01 3.777e+00 0.000e+00 -5.487e-14 -3.374e-04
5.666e-01 3.777e+00 0.000e+00 -5.670e-14 -3.226e-04
7.555e-01 3.777e+00 0.000e+00 -5.784e-14 -3.036e-04
9.443e-01 3.777e+00 0.000e+00 -5.341e-14 -2.816e-04
1.133e+00 3.777e+00 0.000e+00 -5.447e-14 -2.581e-04
1.322e+00 3.777e+00 0.000e+00 -5.725e-14 -2.344e-04
1.511e+00 3.777e+00 0.000e+00 -6.390e-14 -2.120e-04
1.700e+00 3.777e+00 0.000e+00 -5.381e-14 -1.920e-04
1.889e+00 3.777e+00 0.000e+00 -4.807e-14 -1.757e-04
2.078e+00 3.777e+00 0.000e+00 -7.656e-14 -1.642e-04
2.266e+00 3.777e+00 0.000e+00 -6.309e-14 -1.582e-04
2.455e+00 3.777e+00 0.000e+00 -5.709e-14 -1.582e-04
2.644e+00 3.777e+00 0.000e+00 -6.052e-14 -1.642e-04
2.833e+00 3.777e+00 0.000e+00 -4.901e-14 -1.757e-04
3.022e+00 3.777e+00 0.000e+00 -6.252e-14 -1.920e-04
3.211e+00 3.777e+00 0.000e+00 -5.832e-14 -2.120e-04
3.400e+00 3.777e+00 0.000e+00 -4.778e-14 -2.344e-04
3.589e+00 3.777e+00 0.000e+00 -3.565e-14 -2.581e-04
3.777e+00 3.777e+00 0.000e+00 -4.661e-14 -2.816e-04
3.966e+00 3.777e+00 0.000e+00 -4.426e-14 -3.036e-04
4.155e+00 3.777e+00 0.000e+00 -6.751e-14 -3.226e-04
4.344e+00 3.777e+00 0.000e+00 -5.466e-14 -3.374e-04
4.533e+00 3.777e+00 0.000e+00 -5.404e-14 -3.468e-04
0.000e+00 3.966e+00 0.000e+00 -5.555e-14 -3.500e-04
1.889e-01 3.966e+00 0.000e+00 -5.222e-14 -3.468e-04
3.777e-01 3.966e+00 0.000e+00 -5.487e-14 -3.374e-04
5.666e-01 3.966e+00 0.000e+00 -5.670e-14 -3.226e-04
7.555e-01 3.966e+00 0.000e+00 -5.784e-14 -3.036e-04
9.443e-01 3.966e+00 0.000e+00 -5.341e-14 -2.816e-04
1.133e+00 3.966e+00 0.000e+00 -5.447e-14 -2.581e-04
1.322e+00 3.966e+00 0.000e+00 -5.725e-14 -2.344e-04
1.511e+00 3.966e+00 0.000e+00 -6.390e-14 -2.120e-04
1.700e+00 3.966e+00 0.000e+00 -5.381e-14 -1.920e-04
1.889e+00 3.966e+00 0.000e+00 -4.807e-14 -1.757e-04
2.078e+00 3.966e+00 0.000e+00 -7.656e-14 -1.642e-04
2.266e+00 3.966e+00 0.000e+00 -6.309e-14 -1.582e-04
2.455e+00 3.966e+00 0.000e+00 -5.709e-14 -1.582e-04
2.644e+00 3.966e+00 0.000e+00 -6.052e-14 -1.642e-04
2.833e+00 3.966e+00 0.000e+00 -4.901e-14 -1.757e-04
3.022e+00 3.966e+00 0.000e+00 -6.252e-14 -1.920e-04
3.211e+00 3.966e+00 0.000e+00 -5.832e-14 -2.120e-04
3.400e+00 3.966e+00 0.000e+00 -4.778e-14 -2.344e-04
3.589e+00 3.966e+00 0.000e+00 -3.565e-14 -2.581e-04
3.777e+00 3.966e+00 0.000e+00 -4.661e-14 -2.816e-04
3.966e+00 3.966e+00 0.000e+00 -4.426e-14 -3.036e-04
4.155e+00 3.966e+00 0.000e+00 -6.751e-14 -3.226e-04
4.344e+00 3.966e+00 0.000e+00 -5.466e-14 -3.374e-04
4.533e+00 3.966e+00 0.000e+00 -5.404e-14 -3.468e-04
0.000e+00 4.155e+00 0.000e+00 -5.555e-14 -3.500e-04
1.889e-01 4.155e+00 0.000e+00 -5.222e-14 -3.468e-04
3.777e-01 4.155e+00 0.000e+00 -5.487e-14 -3.374e-04
5.666e-01 4.155e+00 0.000e+00 -5.670e-14 -3.226e-04
7.555e-01 4.155e+00 0.000e+00 -5.784e-14 -3.036e-04
9.443e-01 4.155e+00 0.000e+00 -5.341e-14 -2.816e-04
1.133e+00 4.155e+00 0.000e+00 -5.447e-14 -2.581e-04
1.322e+00 4.155e+00 0.000e+00 -5.725e-14 -2.344e-04
1.511e+00 4.155e+00 0.000e+00 -6.390e-14 -2.120e-04
1.700e+00 4.155e+00 0.000e+00 -5.381e-14 -1.920e-04
1.889e+00 4.155e+00 0.000e+00 -4.807e-14 -1.757e-04
2.078e+00 4.155e+00 0.000e+00 -7.656e-14 -1.642e-04
2.266e+00 4.155e+00 0.000e+00 -6.309e-14 -1.582e-04
2.455e+00 4.155e+00 0.000e+00 -5.709e-14 -1.582e-04
2.644e+00 4.155e+00 0.000e+00 -6.052e-14 -1.642e-04
2.833e+00 4.155e+00 0.000e+00 -4.901e-14 -1.757e-04
3.022e+00 4.155e+00 0.000e+00 -6.252e-14 -1.920e-04
3.211e+00 4.155e+00 0.000e+00 -5.832e-14 -2.120e-04
3.400e+00 4.155e+00 0.000e+00 -4.778e-14 -2.344e-04
3.589e+00 4.155e+00 0.000e+00 -3.565e-14 -2.581e-04
3.777e+00 4.155e+00 0.000e+00 -4.661e-14 -2.816e-04
3.966e+00 4.155e+00 0.000e+00 -4.426e-14 -3.036e-04
4.155e+00 4.155e+00 0.000e+00 -6.751e-14 -3.226e-04
4.344e+00 4.155e+00 0.000e+00 -5.466e-14 -3.374e-04
4.533e+00 4.155e+00 0.000e+00 -5.404e-14 -3.468e-04