TITLE = "wacm"
VARIABLES = "X", "Y", "Z", "Real", "Imaginary"
ZONE I=25, J=25, K=75, F=POINT
0.000e+00 0.000e+00 0.000e+00 -1.276e-03 1.599e-14
1.889e-01 0.000e+00 0.000e+00 -1.280e-03 3.419e-14
3.777e-01 0.000e+00 0.000e+00 -1.291e-03 3.643e-14
5.666e-01 0.000e+00 0.000e+00 -1.309e-03 2.935e-14
7.555e-01 0.000e+00 0.000e+00 -1.332e-03 3.808e-14
9.443e-01 0.000e+00 0.000e+00 -1.358e-03 4.290e-15
1.133e+00 0.000e+00 0.000e+00 -1.386e-03 2.845e-14
1.322e+00 0.000e+00 0.000e+00 -1.414e-03 3.027e-14
1.511e+00 0.000e+00 0.000e+00 -1.440e-03 1.454e-15
1.700e+00 0.000e+00 0.000e+00 -1.463e-03 3.139e-14
1.889e+00 0.000e+00 0.000e+00 -1.482e-03 5.856e-14
2.078e+00 0.000e+00 0.000e+00 -1.496e-03 3.550e-14
2.266e+00 0.000e+00 0.000e+00 -1.502e-03 1.648e-14
2.455e+00 0.000e+00 0.000e+00 -1.502e-03 4.153e-14
2.644e+00 0.000e+00 0.000e+00 -1.496e-03 5.502e-14
2.833e+00 0.000e+00 0.000e+00 -1.482e-03 2.534e-14
3.022e+00 0.000e+00 0.000e+00 -1.463e-03 -2.908e-15
3.211e+00 0.000e+00 0.000e+00 -1.440e-03 5.817e-14
3.400e+00 0.000e+00 0.000e+00 -1.414e-03 5.327e-14
3.589e+00 0.000e+00 0.000e+00 -1.386e-03 3.323e-14
3.777e+00 0.000e+00 0.000e+00 -1.358e-03 5.132e-14
3.966e+00 0.000e+00 0.000e+00 -1.332e-03 3.329e-14
4.155e+00 0.000e+00 0.000e+00 -1.309e-03 2.725e-14
4.344e+00 0.000e+00 0.000e+00 -1.291e-03 1.849e-14
4.533e+00 0.000e+00 0.000e+00 -1.280e-03 3.530e-14
0.000e+00 1.889e-01 0.000e+00 -1.276e-03 1.599e-14
1.889e-01 1.889e-01 0.000e+00 -1.280e-03 3.419e-14
3.777e-01 1.889e-01 0.000e+00 -1.291e-03 3.643e-14
5.666e-01 1.889e-01 0.000e+00 -1.309e-03 2.935e-14
7.555e-01 1.889e-01 0.000e+00 -1.332e-03 3.808e-14
9.443e-01 1.889e-01 0.000e+00 -1.358e-03 4.290e-15
1.133e+00 1.889e-01 0.000e+00 -1.386e-03 2.845e-14
1.322e+00 1.889e-01 0.000e+00 -1.414e-03 3.027e-14
1.511e+00 1.889e-01 0.000e+00 -1.440e-03 1.454e-15
1.700e+00 1.889e-01 0.000e+00 -1.463e-03 3.139e-14
1.889e+00 1.889e-01 0.000e+00 -1.482e-03 5.856e-14
2.078e+00 1.889e-01 0.000e+00 -1.496e-03 3.550e-14
2.266e+00 1.889e-01 0.000e+00 -1.502e-03 1.648e-14
2.455e+00 1.889e-01 0.000e+00 -1.502e-03 4.153e-14
2.644e+00 1.889e-01 0.000e+00 -1.496e-03 5.502e-14
2.833e+00 1.889e-01 0.000e+00 -1.482e-03 2.534e-14
3.022e+00 1.889e-01 0.000e+00 -1.463e-03 -2.908e-15
3.211e+00 1.889e-01 0.000e+00 -1.440e-03 5.817e-14
3.400e+00 1.889e-01 0.000e+00 -1.414e-03 5.327e-14
3.589e+00 1.889e-01 0.000e+00 -1.386e-03 3.323e-14
3.777e+00 1.889e-01 0.000e+00 -1.358e-03 5.132e-14
3.966e+00 1.889e-01 0.000e+00 -1.332e-03 3.329e-14
4.155e+00 1.889e-01 0.000e+00 -1.309e-03 2.725e-14
4.344e+00 1.889e-01 0.000e+00 -1.291e-03 1.849e-14
4.533e+00 1.889e-01 0.000e+00 -1.280e-03 3.530e-14
0.000e+00 3.777e-01 0.000e+00 -1.276e-03 1.599e-14
1.889e-01 3.777e-01 0.000e+00 -1.280e-03 3.419e-14
3.777e-01 3.777e-01 0.000e+00 -1.291e-03 3.643e-14
5.666e-01 3.777e-01 0.000e+00 -1.309e-03 2.935e-14
7.555e-01 3.777e-01 0.000e+00 -1.332e-03 3.808e-14
9.443e-01 3.777e-01 0.000e+00 -1.358e-03 4.290e-15
1.133e+00 3.777e-01 0.000e+00 -1.386e-03 2.845e-14
1.322e+00 3.777e-01 0.000e+00 -1.414e-03 3.027e-14
1.511e+00 3.777e-01 0.000e+00 -1.440e-03 1.454e-15
1.700e+00 3.777e-01 0.000e+00 -1.463e-03 3.139e-14
1.889e+00 3.777e-01 0.000e+00 -1.482e-03 5.856e-14
2.078e+00 3.777e-01 0.000e+00 -1.496e-03 3.550e-14
2.266e+00 3.777e-01 0.000e+00 -1.502e-03 1.648e-14
2.455e+00 3.777e-01 0.000e+00 -1.502e-03 4.153e-14
2.644e+00 3.777e-01 0.000e+00 -1.496e-03 5.502e-14
2.833e+00 3.777e-01 0.000e+00 -1.482e-03 2.534e-14
3.022e+00 3.777e-01 0.000e+00 -1.463e-03 -2.908e-15
3.211e+00 3.777e-01 0.000e+00 -1.440e-03 5.817e-14
3.400e+00 3.777e-01 0.000e+00 -1.414e-03 5.327e-14
3.589e+00 3.777e-01 0.000e+00 -1.386e-03 3.323e-14
3.777e+00 3.777e-01 0.000e+00 -1.358e-03 5.132e-14
3.966e+00 3.777e-01 0.000e+00 -1.332e-03 3.329e-14
4.155e+00 3.777e-01 0.000e+00 -1.309e-03 2.725e-14
4.344e+00 3.777e-01 0.000e+00 -1.291e-03 1.849e-14
4.533e+00 3.777e-01 0.000e+00 -1.280e-03 3.530e-14
0.000e+00 5.666e-01 0.000e+00 -1.276e-03 1.599e-14
1.889e-01 5.666e-01 0.000e+00 -1.280e-03 3.419e-14
3.777e-01 5.666e-01 0.000e+00 -1.291e-03 3.643e-14
5.666e-01 5.666e-01 0.000e+00 -1.309e-03 2.935e-14
7.555e-01 5.666e-01 0.000e+00 -1.332e-03 3.808e-14
9.443e-01 5.666e-01 0.000e+00 -1.358e-03 4.290e-15
1.133e+00 5.666e-01 0.000e+00 -1.386e-03 2.845e-14
1.322e+00 5.666e-01 0.000e+00 -1.414e-03 3.027e-14
1.511e+00 5.666e-01 0.000e+00 -1.440e-03 1.454e-15
1.700e+00 5.666e-01 0.000e+00 -1.463e-03 3.139e-14
1.889e+00 5.666e-01 0.000e+00 -1.482e-03 5.856e-14
2.078e+00 5.666e-01 0.000e+00 -1.496e-03 3.550e-14
2.266e+00 5.666e-01 0.000e+00 -1.502e-03 1.648e-14
2.455e+00 5.666e-01 0.000e+00 -1.502e-03 4.153e-14
2.644e+00 5.666e-01 0.000e+00 -1.496e-03 5.502e-14
2.833e+00 5.666e-01 0.000e+00 -1.482e-03 2.534e-14
3.022e+00 5.666e-01 0.000e+00 -1.463e-03 -2.908e-15
3.211e+00 5.666e-01 0.000e+00 -1.440e-03 5.817e-14
3.400e+00 5.666e-01 0.000e+00 -1.414e-03 5.327e-14
3.589e+00 5.666e-01 0.000e+00 -1.386e-03 3.323e-14
3.777e+00 5.666e-01 0.000e+00 -1.358e-03 5.132e-14
3.966e+00 5.666e-01 0.000e+00 -1.332e-03 3.329e-14
4.155e+00 5.666e-01 0.000e+00 -1.309e-03 2.725e-14
4.344e+00 5.666e-01 0.000e+00 -1.291e-03 1.849e-14
4.533e+00 5.666e-01 0.000e+00 -1.280e-03 3.530e-14
0.000e+00 7.555e-01 0.000e+00 -1.276e-03 1.599e-14
1.889e-01 7.555e-01 0.000e+00 -1.280e-03 3.419e-14
3.777e-01 7.555e-01 0.000e+00 -1.291e-03 3.643e-14
5.666e-01 7.555e-01 0.000e+00 -1.309e-03 2.935e-14
7.555e-01 7.555e-01 0.000e+00 -1.332e-03 3.808e-14
9.443e-01 7.555e-01 0.000e+00 -1.358e-03 4.290e-15
1.133e+00 7.555e-01 0.000e+00 -1.386e-03 2.845e-14
1.322e+00 7.555e-01 0.000e+00 -1.414e-03 3.027e-14
1.511e+00 7.555e-01 0.000e+00 -1.440e-03 1.454e-15
1.700e+00 7.555e-01 0.000e+00 -1.463e-03 3.139e-14
1.889e+00 7.555e-01 0.000e+00 -1.482e-03 5.856e-14
2.078e+00 7.555e-01 0.000e+00 -1.496e-03 3.550e-14
2.266e+00 7.555e-01 0.000e+00 -1.502e-03 1.648e-14
2.455e+00 7.555e-01 0.000e+00 -1.502e-03 4.153e-14
2.644e+00 7.555e-01 0.000e+00 -1.496e-03 5.502e-14
2.833e+00 7.555e-01 0.000e+00 -1.482e-03 2.534e-14
3.022e+00 7.555e-01 0.000e+00 -1.463e-03 -2.908e-15
3.211e+00 7.555e-01 0.000e+00 -1.440e-03 5.817e-14
3.400e+00 7.555e-01 0.000e+00 -1.414e-03 5.327e-14
3.589e+00 7.555e-01 0.000e+00 -1.386e-03 3.323e-14
3.777e+00 7.555e-01 0.000e+00 -1.358e-03 5.132e-14
3.966e+00 7.555e-01 0.000e+00 -1.332e-03 3.329e-14
4.155e+00 7.555e-01 0.000e+00 -1.309e-03 2.725e-14
4.344e+00 7.555e-01 0.000e+00 -1.291e-03 1.849e-14
4.533e+00 7.555e-01 0.000e+00 -1.280e-03 3.530e-14
0.000e+00 9.443e-01 0.000e+00 -1.276e-03 1.599e-14
1.889e-01 9.443e-01 0.000e+00 -1.280e-03 3.419e-14
3.777e-01 9.443e-01 0.000e+00 -1.291e-03 3.643e-14
5.666e-01 9.443e-01 0.000e+00 -1.309e-03 2.935e-14
7.555e-01 9.443e-01 0.000e+00 -1.332e-03 3.808e-14
9.443e-01 9.443e-01 0.000e+00 -1.358e-03 4.290e-15
1.133e+00 9.443e-01 0.000e+00 -1.386e-03 2.845e-14
1.322e+00 9.443e-01 0.000e+00 -1.414e-03 3.027e-14
1.511e+00 9.443e-01 0.000e+00 -1.440e-03 1.454e-15
1.700e+00 9.443e-01 0.000e+00 -1.463e-03 3.139e-14
1.889e+00 9.443e-01 0.000e+00 -1.482e-03 5.856e-14
2.078e+00 9.443e-01 0.000e+00 -1.496e-03 3.550e-14
2.266e+00 9.443e-01 0.000e+00 -1.502e-03 1.648e-14
2.455e+00 9.443e-01 0.000e+00 -1.502e-03 4.153e-14
2.644e+00 9.443e-01 0.000e+00 -1.496e-03 5.502e-14
2.833e+00 9.443e-01 0.000e+00 -1.482e-03 2.534e-14
3.022e+00 9.443e-01 0.000e+00 -1.463e-03 -2.908e-15
3.211e+00 9.443e-01 0.000e+00 -1.440e-03 5.817e-14
3.400e+00 9.443e-01 0.000e+00 -1.414e-03 5.327e-14
3.589e+00 9.443e-01 0.000e+00 -1.386e-03 3.323e-14
3.777e+00 9.443e-01 0.000e+00 -1.358e-03 5.132e-14
3.966e+00 9.443e-01 0.000e+00 -1.332e-03 3.329e-14
4.155e+00 9.443e-01 0.000e+00 -1.309e-03 2.725e-14
4.344e+00 9.443e-01 0.000e+00 -1.291e-03 1.849e-14
4.533e+00 9.443e-01 0.000e+00 -1.280e-03 3.530e-14
0.000e+00 1.133e+00 0.000e+00 -1.276e-03 1.599e-14
1.889e-01 1.133e+00 0.000e+00 -1.280e-03 3.419e-14
3.777e-01 1.133e+00 0.000e+00 -1.291e-03 3.643e-14
5.666e-01 1.133e+00 0.000e+00 -1.309e-03 2.935e-14
7.555e-01 1.133e+00 0.000e+00 -1.332e-03 3.808e-14
9.443e-01 1.133e+00 0.000e+00 -1.358e-03 4.290e-15
1.133e+00 1.133e+00 0.000e+00 -1.386e-03 2.845e-14
1.322e+00 1.133e+00 0.000e+00 -1.414e-03 3.027e-14
1.511e+00 1.133e+00 0.000e+00 -1.440e-03 1.454e-15
1.700e+00 1.133e+00 0.000e+00 -1.463e-03 3.139e-14
1.889e+00 1.133e+00 0.000e+00 -1.482e-03 5.856e-14
2.078e+00 1.133e+00 0.000e+00 -1.496e-03 3.550e-14
2.266e+00 1.133e+00 0.000e+00 -1.502e-03 1.648e-14
2.455e+00 1.133e+00 0.000e+00 -1.502e-03 4.153e-14
2.644e+00 1.133e+00 0.000e+00 -1.496e-03 5.502e-14
2.833e+00 1.133e+00 0.000e+00 -1.482e-03 2.534e-14
3.022e+00 1.133e+00 0.000e+00 -1.463e-03 -2.908e-15
3.211e+00 1.133e+00 0.000e+00 -1.440e-03 5.817e-14
3.400e+00 1.133e+00 0.000e+00 -1.414e-03 5.327e-14
3.589e+00 1.133e+00 0.000e+00 -1.386e-03 3.323e-14
3.777e+00 1.133e+00 0.000e+00 -1.358e-03 5.132e-14
3.966e+00 1.133e+00 0.000e+00 -1.332e-03 3.329e-14
4.155e+00 1.133e+00 0.000e+00 -1.309e-03 2.725e-14
4.344e+00 1.133e+00 0.000e+00 -1.291e-03 1.849e-14
4.533e+00 1.133e+00 0.000e+00 -1.280e-03 3.530e-14
0.000e+00 1.322e+00 0.000e+00 -1.276e-03 1.599e-14
1.889e-01 1.322e+00 0.000e+00 -1.280e-03 3.419e-14
3.777e-01 1.322e+00 0.000e+00 -1.291e-03 3.643e-14
5.666e-01 1.322e+00 0.000e+00 -1.309e-03 2.935e-14
7.555e-01 1.322e+00 0.000e+00 -1.332e-03 3.808e-14
9.443e-01 1.322e+00 0.000e+00 -1.358e-03 4.290e-15
1.133e+00 1.322e+00 0.000e+00 -1.386e-03 2.845e-14
1.322e+00 1.322e+00 0.000e+00 -1.414e-03 3.027e-14
1.511e+00 1.322e+00 0.000e+00 -1.440e-03 1.454e-15
1.700e+00 1.322e+00 0.000e+00 -1.463e-03 3.139e-14
1.889e+00 1.322e+00 0.000e+00 -1.482e-03 5.856e-14
2.078e+00 1.322e+00 0.000e+00 -1.496e-03 3.550e-14
2.266e+00 1.322e+00 0.000e+00 -1.502e-03 1.648e-14
2.455e+00 1.322e+00 0.000e+00 -1.502e-03 4.153e-14
2.644e+00 1.322e+00 0.000e+00 -1.496e-03 5.502e-14
2.833e+00 1.322e+00 0.000e+00 -1.482e-03 2.534e-14
3.022e+00 1.322e+00 0.000e+00 -1.463e-03 -2.908e-15
3.211e+00 1.322e+00 0.000e+00 -1.440e-03 5.817e-14
3.400e+00 1.322e+00 0.000e+00 -1.414e-03 5.327e-14
3.589e+00 1.322e+00 0.000e+00 -1.386e-03 3.323e-14
3.777e+00 1.322e+00 0.000e+00 -1.358e-03 5.132e-14
3.966e+00 1.322e+00 0.000e+00 -1.332e-03 3.329e-14
4.155e+00 1.322e+00 0.000e+00 -1.309e-03 2.725e-14
4.344e+00 1.322e+00 0.000e+00 -1.291e-03 1.849e-14
4.533e+00 1.322e+00 0.000e+00 -1.280e-03 3.530e-14
0.000e+00 1.511e+00 0.000e+00 -1.276e-03 1.599e-14
1.889e-01 1.511e+00 0.000e+00 -1.280e-03 3.419e-14
3.777e-01 1.511e+00 0.000e+00 -1.291e-03 3.643e-14
5.666e-01 1.511e+00 0.000e+00 -1.309e-03 2.935e-14
7.555e-01 1.511e+00 0.000e+00 -1.332e-03 3.808e-14
9.443e-01 1.511e+00 0.000e+00 -1.358e-03 4.290e-15
1.133e+00 1.511e+00 0.000e+00 -1.386e-03 2.845e-14
1.322e+00 1.511e+00 0.000e+00 -1.414e-03 3.027e-14
1.511e+00 1.511e+00 0.000e+00 -1.440e-03 1.454e-15
1.700e+00 1.511e+00 0.000e+00 -1.463e-03 3.139e-14
1.889e+00 1.511e+00 0.000e+00 -1.482e-03 5.856e-14
2.078e+00 1.511e+00 0.000e+00 -1.496e-03 3.550e-14
2.266e+00 1.511e+00 0.000e+00 -1.502e-03 1.648e-14
2.455e+00 1.511e+00 0.000e+00 -1.502e-03 4.153e-14
2.644e+00 1.511e+00 0.000e+00 -1.496e-03 5.502e-14
2.833e+00 1.511e+00 0.000e+00 -1.482e-03 2.534e-14
3.022e+00 1.511e+00 0.000e+00 -1.463e-03 -2.908e-15
3.211e+00 1.511e+00 0.000e+00 -1.440e-03 5.817e-14
3.400e+00 1.511e+00 0.000e+00 -1.414e-03 5.327e-14
3.589e+00 1.511e+00 0.000e+00 -1.386e-03 3.323e-14
3.777e+00 1.511e+00 0.000e+00 -1.358e-03 5.132e-14
3.966e+00 1.511e+00 0.000e+00 -1.332e-03 3.329e-14
4.155e+00 1.511e+00 0.000e+00 -1.309e-03 2.725e-14
4.344e+00 1.511e+00 0.000e+00 -1.291e-03 1.849e-14
4.533e+00 1.511e+00 0.000e+00 -1.280e-03 3.530e-14
0.000e+00 1.700e+00 0.000e+00 -1.276e-03 1.599e-14
1.889e-01 1.700e+00 0.000e+00 -1.280e-03 3.419e-14
3.777e-01 1.700e+00 0.000e+00 -1.291e-03 3.643e-14
5.666e-01 1.700e+00 0.000e+00 -1.309e-03 2.935e-14
7.555e-01 1.700e+00 0.000e+00 -1.332e-03 3.808e-14
9.443e-01 1.700e+00 0.000e+00 -1.358e-03 4.290e-15
1.133e+00 1.700e+00 0.000e+00 -1.386e-03 2.845e-14
1.322e+00 1.700e+00 0.000e+00 -1.414e-03 3.027e-14
1.511e+00 1.700e+00 0.000e+00 -1.440e-03 1.454e-15
1.700e+00 1.700e+00 0.000e+00 -1.463e-03 3.139e-14
1.889e+00 1.700e+00 0.000e+00 -1.482e-03 5.856e-14
2.078e+00 1.700e+00 0.000e+00 -1.496e-03 3.550e-14
2.266e+00 1.700e+00 0.000e+00 -1.502e-03 1.648e-14
2.455e+00 1.700e+00 0.000e+00 -1.502e-03 4.153e-14
2.644e+00 1.700e+00 0.000e+00 -1.496e-03 5.502e-14
2.833e+00 1.700e+00 0.000e+00 -1.482e-03 2.534e-14
3.022e+00 1.700e+00 0.000e+00 -1.463e-03 -2.908e-15
3.211e+00 1.700e+00 0.000e+00 -1.440e-03 5.817e-14
3.400e+00 1.700e+00 0.000e+00 -1.414e-03 5.327e-14
3.589e+00 1.700e+00 0.000e+00 -1.386e-03 3.323e-14
3.777e+00 1.700e+00 0.000e+00 -1.358e-03 5.132e-14
3.966e+00 1.700e+00 0.000e+00 -1.332e-03 3.329e-14
4.155e+00 1.700e+00 0.000e+00 -1.309e-03 2.725e-14
4.344e+00 1.700e+00 0.000e+00 -1.291e-03 1.849e-14
4.533e+00 1.700e+00 0.000e+00 -1.280e-03 3.530e-14
0.000e+00 1.889e+00 0.000e+00 -1.276e-03 1.599e-14
1.889e-01 1.889e+00 0.000e+00 -1.280e-03 3.419e-14
3.777e-01 1.889e+00 0.000e+00 -1.291e-03 3.643e-14
5.666e-01 1.889e+00 0.000e+00 -1.309e-03 2.935e-14
7.555e-01 1.889e+00 0.000e+00 -1.332e-03 3.808e-14
9.443e-01 1.889e+00 0.000e+00 -1.358e-03 4.290e-15
1.133e+00 1.889e+00 0.000e+00 -1.386e-03 2.845e-14
1.322e+00 1.889e+00 0.000e+00 -1.414e-03 3.027e-14
1.511e+00 1.889e+00 0.000e+00 -1.440e-03 1.454e-15
1.700e+00 1.889e+00 0.000e+00 -1.463e-03 3.139e-14
1.889e+00 1.889e+00 0.000e+00 -1.482e-03 5.856e-14
2.078e+00 1.889e+00 0.000e+00 -1.496e-03 3.550e-14
2.266e+00 1.889e+00 0.000e+00 -1.502e-03 1.648e-14
2.455e+00 1.889e+00 0.000e+00 -1.502e-03 4.153e-14
2.644e+00 1.889e+00 0.000e+00 -1.496e-03 5.502e-14
2.833e+00 1.889e+00 0.000e+00 -1.482e-03 2.534e-14
3.022e+00 1.889e+00 0.000e+00 -1.463e-03 -2.908e-15
3.211e+00 1.889e+00 0.000e+00 -1.440e-03 5.817e-14
3.400e+00 1.889e+00 0.000e+00 -1.414e-03 5.327e-14
3.589e+00 1.889e+00 0.000e+00 -1.386e-03 3.323e-14
3.777e+00 1.889e+00 0.000e+00 -1.358e-03 5.132e-14
3.966e+00 1.889e+00 0.000e+00 -1.332e-03 3.329e-14
4.155e+00 1.889e+00 0.000e+00 -1.309e-03 2.725e-14
4.344e+00 1.889e+00 0.000e+00 -1.291e-03 1.849e-14
4.533e+00 1.889e+00 0.000e+00 -1.280e-03 3.530e-14
0.000e+00 2.078e+00 0.000e+00 -1.276e-03 1.599e-14
1.889e-01 2.078e+00 0.000e+00 -1.280e-03 3.419e-14
3.777e-01 2.078e+00 0.000e+00 -1.291e-03 3.643e-14
5.666e-01 2.078e+00 0.000e+00 -1.309e-03 2.935e-14
7.555e-01 2.078e+00 0.000e+00 -1.332e-03 3.808e-14
9.443e-01 2.078e+00 0.000e+00 -1.358e-03 4.290e-15
1.133e+00 2.078e+00 0.000e+00 -1.386e-03 2.845e-14
1.322e+00 2.078e+00 0.000e+00 -1.414e-03 3.027e-14
1.511e+00 2.078e+00 0.000e+00 -1.440e-03 1.454e-15
1.700e+00 2.078e+00 0.000e+00 -1.463e-03 3.139e-14
1.889e+00 2.078e+00 0.000e+00 -1.482e-03 5.856e-14
2.078e+00 2.078e+00 0.000e+00 -1.496e-03 3.550e-14
2.266e+00 2.078e+00 0.000e+00 -1.502e-03 1.648e-14
2.455e+00 2.078e+00 0.000e+00 -1.502e-03 4.153e-14
2.644e+00 2.078e+00 0.000e+00 -1.496e-03 5.502e-14
2.833e+00 2.078e+00 0.000e+00 -1.482e-03 2.534e-14
3.022e+00 2.078e+00 0.000e+00 -1.463e-03 -2.908e-15
3.211e+00 2.078e+00 0.000e+00 -1.440e-03 5.817e-14
3.400e+00 2.078e+00 0.000e+00 -1.414e-03 5.327e-14
3.589e+00 2.078e+00 0.000e+00 -1.386e-03 3.323e-14
3.777e+00 2.078e+00 0.000e+00 -1.358e-03 5.132e-14
3.966e+00 2.078e+00 0.000e+00 -1.332e-03 3.329e-14
4.155e+00 2.078e+00 0.000e+00 -1.309e-03 2.725e-14
4.344e+00 2.078e+00 0.000e+00 -1.291e-03 1.849e-14
4.533e+00 2.078e+00 0.000e+00 -1.280e-03 3.530e-14
0.000e+00 2.266e+00 0.000e+00 -1.276e-03 1.599e-14
1.889e-01 2.266e+00 0.000e+00 -1.280e-03 3.419e-14
3.777e-01 2.266e+00 0.000e+00 -1.291e-03 3.643e-14
5.666e-01 2.266e+00 0.000e+00 -1.309e-03 2.935e-14
7.555e-01 2.266e+00 0.000e+00 -1.332e-03 3.808e-14
9.443e-01 2.266e+00 0.000e+00 -1.358e-03 4.290e-15
1.133e+00 2.266e+00 0.000e+00 -1.386e-03 2.845e-14
1.322e+00 2.266e+00 0.000e+00 -1.414e-03 3.027e-14
1.511e+00 2.266e+00 0.000e+00 -1.440e-03 1.454e-15
1.700e+00 2.266e+00 0.000e+00 -1.463e-03 3.139e-14
1.889e+00 2.266e+00 0.000e+00 -1.482e-03 5.856e-14
2.078e+00 2.266e+00 0.000e+00 -1.496e-03 3.550e-14
2.266e+00 2.266e+00 0.000e+00 -1.502e-03 1.648e-14
2.455e+00 2.266e+00 0.000e+00 -1.502e-03 4.153e-14
2.644e+00 2.266e+00 0.000e+00 -1.496e-03 5.502e-14
2.833e+00 2.266e+00 0.000e+00 -1.482e-03 2.534e-14
3.022e+00 2.266e+00 0.000e+00 -1.463e-03 -2.908e-15
3.211e+00 2.266e+00 0.000e+00 -1.440e-03 5.817e-14
3.400e+00 2.266e+00 0.000e+00 -1.414e-03 5.327e-14
3.589e+00 2.266e+00 0.000e+00 -1.386e-03 3.323e-14
3.777e+00 2.266e+00 0.000e+00 -1.358e-03 5.132e-14
3.966e+00 2.266e+00 0.000e+00 -1.332e-03 3.329e-14
4.155e+00 2.266e+00 0.000e+00 -1.309e-03 2.725e-14
4.344e+00 2.266e+00 0.000e+00 -1.291e-03 1.849e-14
4.533e+00 2.266e+00 0.000e+00 -1.280e-03 3.530e-14
0.000e+00 2.455e+00 0.000e+00 -1.276e-03 1.599e-14
1.889e-01 2.455e+00 0.000e+00 -1.280e-03 3.419e-14
3.777e-01 2.455e+00 0.000e+00 -1.291e-03 3.643e-14
5.666e-01 2.455e+00 0.000e+00 -1.309e-03 2.935e-14
7.555e-01 2.455e+00 0.000e+00 -1.332e-03 3.808e-14
9.443e-01 2.455e+00 0.000e+00 -1.358e-03 4.290e-15
1.133e+00 2.455e+00 0.000e+00 -1.386e-03 2.845e-14
1.322e+00 2.455e+00 0.000e+00 -1.414e-03 3.027e-14
1.511e+00 2.455e+00 0.000e+00 -1.440e-03 1.454e-15
1.700e+00 2.455e+00 0.000e+00 -1.463e-03 3.139e-14
1.889e+00 2.455e+00 0.000e+00 -1.482e-03 5.856e-14
2.078e+00 2.455e+00 0.000e+00 -1.496e-03 3.550e-14
2.266e+00 2.455e+00 0.000e+00 -1.502e-03 1.648e-14
2.455e+00 2.455e+00 0.000e+00 -1.502e-03 4.153e-14
2.644e+00 2.455e+00 0.000e+00 -1.496e-03 5.502e-14
2.833e+00 2.455e+00 0.000e+00 -1.482e-03 2.534e-14
3.022e+00 2.455e+00 0.000e+00 -1.463e-03 -2.908e-15
3.211e+00 2.455e+00 0.000e+00 -1.440e-03 5.817e-14
3.400e+00 2.455e+00 0.000e+00 -1.414e-03 5.327e-14
3.589e+00 2.455e+00 0.000e+00 -1.386e-03 3.323e-14
3.777e+00 2.455e+00 0.000e+00 -1.358e-03 5.132e-14
3.966e+00 2.455e+00 0.000e+00 -1.332e-03 3.329e-14
4.155e+00 2.455e+00 0.000e+00 -1.309e-03 2.725e-14
4.344e+00 2.455e+00 0.000e+00 -1.291e-03 1.849e-14
4.533e+00 2.455e+00 0.000e+00 -1.280e-03 3.530e-14
0.000e+00 2.644e+00 0.000e+00 -1.276e-03 1.599e-14
1.889e-01 2.644e+00 0.000e+00 -1.280e-03 3.419e-14
3.777e-01 2.644e+00 0.000e+00 -1.291e-03 3.643e-14
5.666e-01 2.644e+00 0.000e+00 -1.309e-03 2.935e-14
7.555e-01 2.644e+00 0.000e+00 -1.332e-03 3.808e-14
9.443e-01 2.644e+00 0.000e+00 -1.358e-03 4.290e-15
1.133e+00 2.644e+00 0.000e+00 -1.386e-03 2.845e-14
1.322e+00 2.644e+00 0.000e+00 -1.414e-03 3.027e-14
1.511e+00 2.644e+00 0.000e+00 -1.440e-03 1.454e-15
1.700e+00 2.644e+00 0.000e+00 -1.463e-03 3.139e-14
1.889e+00 2.644e+00 0.000e+00 -1.482e-03 5.856e-14
2.078e+00 2.644e+00 0.000e+00 -1.496e-03 3.550e-14
2.266e+00 2.644e+00 0.000e+00 -1.502e-03 1.648e-14
2.455e+00 2.644e+00 0.000e+00 -1.502e-03 4.153e-14
2.644e+00 2.644e+00 0.000e+00 -1.496e-03 5.502e-14
2.833e+00 2.644e+00 0.000e+00 -1.482e-03 2.534e-14
3.022e+00 2.644e+00 0.000e+00 -1.463e-03 -2.908e-15
3.211e+00 2.644e+00 0.000e+00 -1.440e-03 5.817e-14
3.400e+00 2.644e+00 0.000e+00 -1.414e-03 5.327e-14
3.589e+00 2.644e+00 0.000e+00 -1.386e-03 3.323e-14
3.777e+00 2.644e+00 0.000e+00 -1.358e-03 5.132e-14
3.966e+00 2.644e+00 0.000e+00 -1.332e-03 3.329e-14
4.155e+00 2.644e+00 0.000e+00 -1.309e-03 2.725e-14
4.344e+00 2.644e+00 0.000e+00 -1.291e-03 1.849e-14
4.533e+00 2.644e+00 0.000e+00 -1.280e-03 3.530e-14
0.000e+00 2.833e+00 0.000e+00 -1.276e-03 1.599e-14
1.889e-01 2.833e+00 0.000e+00 -1.280e-03 3.419e-14
3.777e-01 2.833e+00 0.000e+00 -1.291e-03 3.643e-14
5.666e-01 2.833e+00 0.000e+00 -1.309e-03 2.935e-14
7.555e-01 2.833e+00 0.000e+00 -1.332e-03 3.808e-14
9.443e-01 2.833e+00 0.000e+00 -1.358e-03 4.290e-15
1.133e+00 2.833e+00 0.000e+00 -1.386e-03 2.845e-14
1.322e+00 2.833e+00 0.000e+00 -1.414e-03 3.027e-14
1.511e+00 2.833e+00 0.000e+00 -1.440e-03 1.454e-15
1.700e+00 2.833e+00 0.000e+00 -1.463e-03 3.139e-14
1.889e+00 2.833e+00 0.000e+00 -1.482e-03 5.856e-14
2.078e+00 2.833e+00 0.000e+00 -1.496e-03 3.550e-14
2.266e+00 2.833e+00 0.000e+00 -1.502e-03 1.648e-14
2.455e+00 2.833e+00 0.000e+00 -1.502e-03 4.153e-14
2.644e+00 2.833e+00 0.000e+00 -1.496e-03 5.502e-14
2.833e+00 2.833e+00 0.000e+00 -1.482e-03 2.534e-14
3.022e+00 2.833e+00 0.000e+00 -1.463e-03 -2.908e-15
3.211e+00 2.833e+00 0.000e+00 -1.440e-03 5.817e-14
3.400e+00 2.833e+00 0.000e+00 -1.414e-03 5.327e-14
3.589e+00 2.833e+00 0.000e+00 -1.386e-03 3.323e-14
3.777e+00 2.833e+00 0.000e+00 -1.358e-03 5.132e-14
3.966e+00 2.833e+00 0.000e+00 -1.332e-03 3.329e-14
4.155e+00 2.833e+00 0.000e+00 -1.309e-03 2.725e-14
4.344e+00 2.833e+00 0.000e+00 -1.291e-03 1.849e-14
4.533e+00 2.833e+00 0.000e+00 -1.280e-03 3.530e-14
0.000e+00 3.022e+00 0.000e+00 -1.276e-03 1.599e-14
1.889e-01 3.022e+00 0.000e+00 -1.280e-03 3.419e-14
3.777e-01 3.022e+00 0.000e+00 -1.291e-03 3.643e-14
5.666e-01 3.022e+00 0.000e+00 -1.309e-03 2.935e-14
7.555e-01 3.022e+00 0.000e+00 -1.332e-03 3.808e-14
9.443e-01 3.022e+00 0.000e+00 -1.358e-03 4.290e-15
1.133e+00 3.022e+00 0.000e+00 -1.386e-03 2.845e-14
1.322e+00 3.022e+00 0.000e+00 -1.414e-03 3.027e-14
1.511e+00 3.022e+00 0.000e+00 -1.440e-03 1.454e-15
1.700e+00 3.022e+00 0.000e+00 -1.463e-03 3.139e-14
1.889e+00 3.022e+00 0.000e+00 -1.482e-03 5.856e-14
2.078e+00 3.022e+00 0.000e+00 -1.496e-03 3.550e-14
2.266e+00 3.022e+00 0.000e+00 -1.502e-03 1.648e-14
2.455e+00 3.022e+00 0.000e+00 -1.502e-03 4.153e-14
2.644e+00 3.022e+00 0.000e+00 -1.496e-03 5.502e-14
2.833e+00 3.022e+00 0.000e+00 -1.482e-03 2.534e-14
3.022e+00 3.022e+00 0.000e+00 -1.463e-03 -2.908e-15
3.211e+00 3.022e+00 0.000e+00 -1.440e-03 5.817e-14
3.400e+00 3.022e+00 0.000e+00 -1.414e-03 5.327e-14
3.589e+00 3.022e+00 0.000e+00 -1.386e-03 3.323e-14
3.777e+00 3.022e+00 0.000e+00 -1.358e-03 5.132e-14
3.966e+00 3.022e+00 0.000e+00 -1.332e-03 3.329e-14
4.155e+00 3.022e+00 0.000e+00 -1.309e-03 2.725e-14
4.344e+00 3.022e+00 0.000e+00 -1.291e-03 1.849e-14
4.533e+00 3.022e+00 0.000e+00 -1.280e-03 3.530e-14
0.000e+00 3.211e+00 0.000e+00 -1.276e-03 1.599e-14
1.889e-01 3.211e+00 0.000e+00 -1.280e-03 3.419e-14
3.777e-01 3.211e+00 0.000e+00 -1.291e-03 3.643e-14
5.666e-01 3.211e+00 0.000e+00 -1.309e-03 2.935e-14
7.555e-01 3.211e+00 0.000e+00 -1.332e-03 3.808e-14
9.443e-01 3.211e+00 0.000e+00 -1.358e-03 4.290e-15
1.133e+00 3.211e+00 0.000e+00 -1.386e-03 2.845e-14
1.322e+00 3.211e+00 0.000e+00 -1.414e-03 3.027e-14
1.511e+00 3.211e+00 0.000e+00 -1.440e-03 1.454e-15
1.700e+00 3.211e+00 0.000e+00 -1.463e-03 3.139e-14
1.889e+00 3.211e+00 0.000e+00 -1.482e-03 5.856e-14
2.078e+00 3.211e+00 0.000e+00 -1.496e-03 3.550e-14
2.266e+00 3.211e+00 0.000e+00 -1.502e-03 1.648e-14
2.455e+00 3.211e+00 0.000e+00 -1.502e-03 4.153e-14
2.644e+00 3.211e+00 0.000e+00 -1.496e-03 5.502e-14
2.833e+00 3.211e+00 0.000e+00 -1.482e-03 2.534e-14
3.022e+00 3.211e+00 0.000e+00 -1.463e-03 -2.908e-15
3.211e+00 3.211e+00 0.000e+00 -1.440e-03 5.817e-14
3.400e+00 3.211e+00 0.000e+00 -1.414e-03 5.327e-14
3.589e+00 3.211e+00 0.000e+00 -1.386e-03 3.323e-14
3.777e+00 3.211e+00 0.000e+00 -1.358e-03 5.132e-14
3.966e+00 3.211e+00 0.000e+00 -1.332e-03 3.329e-14
4.155e+00 3.211e+00 0.000e+00 -1.309e-03 2.725e-14
4.344e+00 3.211e+00 0.000e+00 -1.291e-03 1.849e-14
4.533e+00 3.211e+00 0.000e+00 -1.280e-03 3.530e-14
0.000e+00 3.400e+00 0.000e+00 -1.276e-03 1.599e-14
1.889e-01 3.400e+00 0.000e+00 -1.280e-03 3.419e-14
3.777e-01 3.400e+00 0.000e+00 -1.291e-03 3.643e-14
5.666e-01 3.400e+00 0.000e+00 -1.309e-03 2.935e-14
7.555e-01 3.400e+00 0.000e+00 -1.332e-03 3.808e-14
9.443e-01 3.400e+00 0.000e+00 -1.358e-03 4.290e-15
1.133e+00 3.400e+00 0.000e+00 -1.386e-03 2.845e-14
1.322e+00 3.400e+00 0.000e+00 -1.414e-03 3.027e-14
1.511e+00 3.400e+00 0.000e+00 -1.440e-03 1.454e-15
1.700e+00 3.400e+00 0.000e+00 -1.463e-03 3.139e-14
1.889e+00 3.400e+00 0.000e+00 -1.482e-03 5.856e-14
2.078e+00 3.400e+00 0.000e+00 -1.496e-03 3.550e-14
2.266e+00 3.400e+00 0.000e+00 -1.502e-03 1.648e-14
2.455e+00 3.400e+00 0.000e+00 -1.502e-03 4.153e-14
2.644e+00 3.400e+00 0.000e+00 -1.496e-03 5.502e-14
2.833e+00 3.400e+00 0.000e+00 -1.482e-03 2.534e-14
3.022e+00 3.400e+00 0.000e+00 -1.463e-03 -2.908e-15
3.211e+00 3.400e+00 0.000e+00 -1.440e-03 5.817e-14
3.400e+00 3.400e+00 0.000e+00 -1.414e-03 5.327e-14
3.589e+00 3.400e+00 0.000e+00 -1.386e-03 3.323e-14
3.777e+00 3.400e+00 0.000e+00 -1.358e-03 5.132e-14
3.966e+00 3.400e+00 0.000e+00 -1.332e-03 3.329e-14
4.155e+00 3.400e+00 0.000e+00 -1.309e-03 2.725e-14
4.344e+00 3.400e+00 0.000e+00 -1.291e-03 1.849e-14
4.533e+00 3.400e+00 0.000e+00 -1.280e-03 3.530e-14
0.000e+00 3.589e+00 0.000e+00 -1.276e-03 1.599e-14
1.889e-01 3.589e+00 0.000e+00 -1.280e-03 3.419e-14
3.777e-01 3.589e+00 0.000e+00 -1.291e-03 3.643e-14
5.666e-01 3.589e+00 0.000e+00 -1.309e-03 2.935e-14
7.555e-01 3.589e+00 0.000e+00 -1.332e-03 3.808e-14
9.443e-01 3.589e+00 0.000e+00 -1.358e-03 4.290e-15
1.133e+00 3.589e+00 0.000e+00 -1.386e-03 2.845e-14
1.322e+00 3.589e+00 0.000e+00 -1.414e-03 3.027e-14
1.511e+00 3.589e+00 0.000e+00 -1.440e-03 1.454e-15
1.700e+00 3.589e+00 0.000e+00 -1.463e-03 3.139e-14
1.889e+00 3.589e+00 0.000e+00 -1.482e-03 5.856e-14
2.078e+00 3.589e+00 0.000e+00 -1.496e-03 3.550e-14
2.266e+00 3.589e+00 0.000e+00 -1.502e-03 1.648e-14
2.455e+00 3.589e+00 0.000e+00 -1.502e-03 4.153e-14
2.644e+00 3.589e+00 0.000e+00 -1.496e-03 5.502e-14
2.833e+00 3.589e+00 0.000e+00 -1.482e-03 2.534e-14
3.022e+00 3.589e+00 0.000e+00 -1.463e-03 -2.908e-15
3.211e+00 3.589e+00 0.000e+00 -1.440e-03 5.817e-14
3.400e+00 3.589e+00 0.000e+00 -1.414e-03 5.327e-14
3.589e+00 3.589e+00 0.000e+00 -1.386e-03 3.323e-14
3.777e+00 3.589e+00 0.000e+00 -1.358e-03 5.132e-14
3.966e+00 3.589e+00 0.000e+00 -1.332e-03 3.329e-14
4.155e+00 3.589e+00 0.000e+00 -1.309e-03 2.725e-14
4.344e+00 3.589e+00 0.000e+00 -1.291e-03 1.849e-14
4.533e+00 3.589e+00 0.000e+00 -1.280e-03 3.530e-14
0.000e+00 3.777e+00 0.000e+00 -1.276e-03 1.599e-14
1.889e-01 3.777e+00 0.000e+00 -1.280e-03 3.419e-14
3.777e-01 3.777e+00 0.000e+00 -1.291e-03 3.643e-14
5.666e-01 3.777e+00 0.000e+00 -1.309e-03 2.935e-14
7.555e-01 3.777e+00 0.000e+00 -1.332e-03 3.808e-14
9.443e-01 3.777e+00 0.000e+00 -1.358e-03 4.290e-15
1.133e+00 3.777e+00 0.000e+00 -1.386e-03 2.845e-14
1.322e+00 3.777e+00 0.000e+00 -1.414e-03 3.027e-14
1.511e+00 3.777e+00 0.000e+00 -1.440e-03 1.454e-15
1.700e+00 3.777e+00 0.000e+00 -1.463e-03 3.139e-14
1.889e+00 3.777e+00 0.000e+00 -1.482e-03 5.856e-14
2.078e+00 3.777e+00 0.000e+00 -1.496e-03 3.550e-14
2.266e+00 3.777e+00 0.000e+00 -1.502e-03 1.648e-14
2.455e+00 3.777e+00 0.000e+00 -1.502e-03 4.153e-14
2.644e+00 3.777e+00 0.000e+00 -1.496e-03 5.502e-14
2.833e+00 3.777e+00 0.000e+00 -1.482e-03 2.534e-14
3.022e+00 3.777e+00 0.000e+00 -1.463e-03 -2.908e-15
3.211e+00 3.777e+00 0.000e+00 -1.440e-03 5.817e-14
3.400e+00 3.777e+00 0.000e+00 -1.414e-03 5.327e-14
3.589e+00 3.777e+00 0.000e+00 -1.386e-03 3.323e-14
3.777e+00 3.777e+00 0.000e+00 -1.358e-03 5.132e-14
3.966e+00 3.777e+00 0.000e+00 -1.332e-03 3.329e-14
4.155e+00 3.777e+00 0.000e+00 -1.309e-03 2.725e-14
4.344e+00 3.777e+00 0.000e+00 -1.291e-03 1.849e-14
4.533e+00 3.777e+00 0.000e+00 -1.280e-03 3.530e-14
0.000e+00 3.966e+00 0.000e+00 -1.276e-03 1.599e-14
1.889e-01 3.966e+00 0.000e+00 -1.280e-03 3.419e-14
3.777e-01 3.966e+00 0.000e+00 -1.291e-03 3.643e-14
5.666e-01 3.966e+00 0.000e+00 -1.309e-03 2.935e-14
7.555e-01 3.966e+00 0.000e+00 -1.332e-03 3.808e-14
9.443e-01 3.966e+00 0.000e+00 -1.358e-03 4.290e-15
1.133e+00 3.966e+00 0.000e+00 -1.386e-03 2.845e-14
1.322e+00 3.966e+00 0.000e+00 -1.414e-03 3.027e-14
1.511e+00 3.966e+00 0.000e+00 -1.440e-03 1.454e-15
1.700e+00 3.966e+00 0.000e+00 -1.463e-03 3.139e-14
1.889e+00 3.966e+00 0.000e+00 -1.482e-03 5.856e-14
2.078e+00 3.966e+00 0.000e+00 -1.496e-03 3.550e-14
2.266e+00 3.966e+00 0.000e+00 -1.502e-03 1.648e-14
2.455e+00 3.966e+00 0.000e+00 -1.502e-03 4.153e-14
2.644e+00 3.966e+00 0.000e+00 -1.496e-03 5.502e-14
2.833e+00 3.966e+00 0.000e+00 -1.482e-03 2.534e-14
3.022e+00 3.966e+00 0.000e+00 -1.463e-03 -2.908e-15
3.211e+00 3.966e+00 0.000e+00 -1.440e-03 5.817e-14
3.400e+00 3.966e+00 0.000e+00 -1.414e-03 5.327e-14
3.589e+00 3.966e+00 0.000e+00 -1.386e-03 3.323e-14
3.777e+00 3.966e+00 0.000e+00 -1.358e-03 5.132e-14
3.966e+00 3.966e+00 0.000e+00 -1.332e-03 3.329e-14
4.155e+00 3.966e+00 0.000e+00 -1.309e-03 2.725e-14
4.344e+00 3.966e+00 0.000e+00 -1.291e-03 1.849e-14
4.533e+00 3.966e+00 0.000e+00 -1.280e-03 3.530e-14
0.000e+00 4.155e+00 0.000e+00 -1.276e-03 1.599e-14
1.889e-01 4.155e+00 0.000e+00 -1.280e-03 3.419e-14
3.777e-01 4.155e+00 0.000e+00 -1.291e-03 3.643e-14
5.666e-01 4.155e+00 0.000e+00 -1.309e-03 2.935e-14
7.555e-01 4.155e+00 0.000e+00 -1.332e-03 3.808e-14
9.443e-01 4.155e+00 0.000e+00 -1.358e-03 4.290e-15
1.133e+00 4.155e+00 0.000e+00 -1.386e-03 2.845e-14
1.322e+00 4.155e+00 0.000e+00 -1.414e-03 3.027e-14
1.511e+00 4.155e+00 0.000e+00 -1.440e-03 1.454e-15
1.700e+00 4.155e+00 0.000e+00 -1.463e-03 3.139e-14
1.889e+00 4.155e+00 0.000e+00 -1.482e-03 5.856e-14
2.078e+00 4.155e+00 0.000e+00 -1.496e-03 3.550e-14
2.266e+00 4.155e+00 0.000e+00 -1.502e-03 1.648e-14
2.455e+00 4.155e+00 0.000e+00 -1.502e-03 4.153e-14
2.644e+00 4.155e+00 0.000e+00 -1.496e-03 5.502e-14
2.833e+00 4.155e+00 0.000e+00 -1.482e-03 2.534e-14
3.022e+00 4.155e+00 0.000e+00 -1.463e-03 -2.908e-15
3.211e+00 4.155e+00 0.000e+00 -1.440e-03 5.817e-14
3.400e+00 4.155e+00 0.000e+00 -1.414e-03 5.327e-14
3.589e+00 4.155e+00 0.000e+00 -1.386e-03 3.323e-14
3.777e+00 4.155e+00 0.000e+00 -1.358e-03 5.132e-14
3.966e+00 4.155e+00 0.000e+00 -1.332e-03 3.329e-14
4.155e+00 4.155e+00 0.000e+00 -1.309e-03 2.725e-14
4.344e+00 4.155e+00 0.000e+00 -1.291e-03 1.849e-14
4.533e+00 4.155e+00 0.000e+00 -1.280e-03 3.530e-14
0.000e+00 4.344e+00 0.000e+00 -1.276e-03 1.599e-14
1.889e-01 4.344e+00 0.000e+00 -1.280e-03 3.419e-14
3.777e-01 4.344e+00 0.000e+00 -1.291e-03 3.643e-14
5.666e-01 4.344e+00 0.000e+00 -1.309e-03 2.935e-14
7.555e-01 4.344e+00 0.000e+00 -1.332e-03 3.808e-14
9.443e-01 4.344e+00 0.000e+00 -1.358e-03 4.290e-15
1.133e+00 4.344e+00 0.000e+00 -1.386e-03 2.845e-14
1.322e+00 4.344e+00 0.000e+00 -1.414e-03 3.027e-14
1.511e+00 4.344e+00 0.000e+00 -1.440e-03 1.454e-15
1.700e+00 4.344e+00 0.000e+00 -1.463e-03 3.139e-14