TITLE = "wacp"
VARIABLES = "X", "Y", "Z", "Real", "Imaginary"
ZONE I=25, J=25, K=75, F=POINT
0.000e+00 0.000e+00 0.000e+00 1.628e-16 -2.113e-03
1.889e-01 0.000e+00 0.000e+00 9.158e-15 -2.109e-03
3.777e-01 0.000e+00 0.000e+00 5.433e-15 -2.097e-03
5.666e-01 0.000e+00 0.000e+00 1.772e-14 -2.079e-03
7.555e-01 0.000e+00 0.000e+00 3.002e-14 -2.056e-03
9.443e-01 0.000e+00 0.000e+00 3.342e-14 -2.030e-03
1.133e+00 0.000e+00 0.000e+00 1.212e-14 -2.002e-03
1.322e+00 0.000e+00 0.000e+00 3.319e-14 -1.975e-03
1.511e+00 0.000e+00 0.000e+00 3.368e-14 -1.948e-03
1.700e+00 0.000e+00 0.000e+00 2.745e-14 -1.925e-03
1.889e+00 0.000e+00 0.000e+00 3.011e-14 -1.906e-03
2.078e+00 0.000e+00 0.000e+00 1.811e-14 -1.893e-03
2.266e+00 0.000e+00 0.000e+00 1.751e-14 -1.886e-03
2.455e+00 0.000e+00 0.000e+00 1.085e-14 -1.886e-03
2.644e+00 0.000e+00 0.000e+00 1.112e-15 -1.893e-03
2.833e+00 0.000e+00 0.000e+00 -5.354e-15 -1.906e-03
3.022e+00 0.000e+00 0.000e+00 1.374e-15 -1.925e-03
3.211e+00 0.000e+00 0.000e+00 -1.680e-14 -1.948e-03
3.400e+00 0.000e+00 0.000e+00 -7.305e-15 -1.975e-03
3.589e+00 0.000e+00 0.000e+00 -2.552e-14 -2.002e-03
3.777e+00 0.000e+00 0.000e+00 -7.550e-15 -2.030e-03
3.966e+00 0.000e+00 0.000e+00 5.273e-15 -2.056e-03
4.155e+00 0.000e+00 0.000e+00 -1.056e-14 -2.079e-03
4.344e+00 0.000e+00 0.000e+00 1.452e-14 -2.097e-03
4.533e+00 0.000e+00 0.000e+00 8.601e-15 -2.109e-03
0.000e+00 1.889e-01 0.000e+00 1.628e-16 -2.113e-03
1.889e-01 1.889e-01 0.000e+00 9.158e-15 -2.109e-03
3.777e-01 1.889e-01 0.000e+00 5.433e-15 -2.097e-03
5.666e-01 1.889e-01 0.000e+00 1.772e-14 -2.079e-03
7.555e-01 1.889e-01 0.000e+00 3.002e-14 -2.056e-03
9.443e-01 1.889e-01 0.000e+00 3.342e-14 -2.030e-03
1.133e+00 1.889e-01 0.000e+00 1.212e-14 -2.002e-03
1.322e+00 1.889e-01 0.000e+00 3.319e-14 -1.975e-03
1.511e+00 1.889e-01 0.000e+00 3.368e-14 -1.948e-03
1.700e+00 1.889e-01 0.000e+00 2.745e-14 -1.925e-03
1.889e+00 1.889e-01 0.000e+00 3.011e-14 -1.906e-03
2.078e+00 1.889e-01 0.000e+00 1.811e-14 -1.893e-03
2.266e+00 1.889e-01 0.000e+00 1.751e-14 -1.886e-03
2.455e+00 1.889e-01 0.000e+00 1.085e-14 -1.886e-03
2.644e+00 1.889e-01 0.000e+00 1.112e-15 -1.893e-03
2.833e+00 1.889e-01 0.000e+00 -5.354e-15 -1.906e-03
3.022e+00 1.889e-01 0.000e+00 1.374e-15 -1.925e-03
3.211e+00 1.889e-01 0.000e+00 -1.680e-14 -1.948e-03
3.400e+00 1.889e-01 0.000e+00 -7.305e-15 -1.975e-03
3.589e+00 1.889e-01 0.000e+00 -2.552e-14 -2.002e-03
3.777e+00 1.889e-01 0.000e+00 -7.550e-15 -2.030e-03
3.966e+00 1.889e-01 0.000e+00 5.273e-15 -2.056e-03
4.155e+00 1.889e-01 0.000e+00 -1.056e-14 -2.079e-03
4.344e+00 1.889e-01 0.000e+00 1.452e-14 -2.097e-03
4.533e+00 1.889e-01 0.000e+00 8.601e-15 -2.109e-03
0.000e+00 3.777e-01 0.000e+00 1.628e-16 -2.113e-03
1.889e-01 3.777e-01 0.000e+00 9.158e-15 -2.109e-03
3.777e-01 3.777e-01 0.000e+00 5.433e-15 -2.097e-03
5.666e-01 3.777e-01 0.000e+00 1.772e-14 -2.079e-03
7.555e-01 3.777e-01 0.000e+00 3.002e-14 -2.056e-03
9.443e-01 3.777e-01 0.000e+00 3.342e-14 -2.030e-03
1.133e+00 3.777e-01 0.000e+00 1.212e-14 -2.002e-03
1.322e+00 3.777e-01 0.000e+00 3.319e-14 -1.975e-03
1.511e+00 3.777e-01 0.000e+00 3.368e-14 -1.948e-03
1.700e+00 3.777e-01 0.000e+00 2.745e-14 -1.925e-03
1.889e+00 3.777e-01 0.000e+00 3.011e-14 -1.906e-03
2.078e+00 3.777e-01 0.000e+00 1.811e-14 -1.893e-03
2.266e+00 3.777e-01 0.000e+00 1.751e-14 -1.886e-03
2.455e+00 3.777e-01 0.000e+00 1.085e-14 -1.886e-03
2.644e+00 3.777e-01 0.000e+00 1.112e-15 -1.893e-03
2.833e+00 3.777e-01 0.000e+00 -5.354e-15 -1.906e-03
3.022e+00 3.777e-01 0.000e+00 1.374e-15 -1.925e-03
3.211e+00 3.777e-01 0.000e+00 -1.680e-14 -1.948e-03
3.400e+00 3.777e-01 0.000e+00 -7.305e-15 -1.975e-03
3.589e+00 3.777e-01 0.000e+00 -2.552e-14 -2.002e-03
3.777e+00 3.777e-01 0.000e+00 -7.550e-15 -2.030e-03
3.966e+00 3.777e-01 0.000e+00 5.273e-15 -2.056e-03
4.155e+00 3.777e-01 0.000e+00 -1.056e-14 -2.079e-03
4.344e+00 3.777e-01 0.000e+00 1.452e-14 -2.097e-03
4.533e+00 3.777e-01 0.000e+00 8.601e-15 -2.109e-03
0.000e+00 5.666e-01 0.000e+00 1.628e-16 -2.113e-03
1.889e-01 5.666e-01 0.000e+00 9.158e-15 -2.109e-03
3.777e-01 5.666e-01 0.000e+00 5.433e-15 -2.097e-03
5.666e-01 5.666e-01 0.000e+00 1.772e-14 -2.079e-03
7.555e-01 5.666e-01 0.000e+00 3.002e-14 -2.056e-03
9.443e-01 5.666e-01 0.000e+00 3.342e-14 -2.030e-03
1.133e+00 5.666e-01 0.000e+00 1.212e-14 -2.002e-03
1.322e+00 5.666e-01 0.000e+00 3.319e-14 -1.975e-03
1.511e+00 5.666e-01 0.000e+00 3.368e-14 -1.948e-03
1.700e+00 5.666e-01 0.000e+00 2.745e-14 -1.925e-03
1.889e+00 5.666e-01 0.000e+00 3.011e-14 -1.906e-03
2.078e+00 5.666e-01 0.000e+00 1.811e-14 -1.893e-03
2.266e+00 5.666e-01 0.000e+00 1.751e-14 -1.886e-03
2.455e+00 5.666e-01 0.000e+00 1.085e-14 -1.886e-03
2.644e+00 5.666e-01 0.000e+00 1.112e-15 -1.893e-03
2.833e+00 5.666e-01 0.000e+00 -5.354e-15 -1.906e-03
3.022e+00 5.666e-01 0.000e+00 1.374e-15 -1.925e-03
3.211e+00 5.666e-01 0.000e+00 -1.680e-14 -1.948e-03
3.400e+00 5.666e-01 0.000e+00 -7.305e-15 -1.975e-03
3.589e+00 5.666e-01 0.000e+00 -2.552e-14 -2.002e-03
3.777e+00 5.666e-01 0.000e+00 -7.550e-15 -2.030e-03
3.966e+00 5.666e-01 0.000e+00 5.273e-15 -2.056e-03
4.155e+00 5.666e-01 0.000e+00 -1.056e-14 -2.079e-03
4.344e+00 5.666e-01 0.000e+00 1.452e-14 -2.097e-03
4.533e+00 5.666e-01 0.000e+00 8.601e-15 -2.109e-03
0.000e+00 7.555e-01 0.000e+00 1.628e-16 -2.113e-03
1.889e-01 7.555e-01 0.000e+00 9.158e-15 -2.109e-03
3.777e-01 7.555e-01 0.000e+00 5.433e-15 -2.097e-03
5.666e-01 7.555e-01 0.000e+00 1.772e-14 -2.079e-03
7.555e-01 7.555e-01 0.000e+00 3.002e-14 -2.056e-03
9.443e-01 7.555e-01 0.000e+00 3.342e-14 -2.030e-03
1.133e+00 7.555e-01 0.000e+00 1.212e-14 -2.002e-03
1.322e+00 7.555e-01 0.000e+00 3.319e-14 -1.975e-03
1.511e+00 7.555e-01 0.000e+00 3.368e-14 -1.948e-03
1.700e+00 7.555e-01 0.000e+00 2.745e-14 -1.925e-03
1.889e+00 7.555e-01 0.000e+00 3.011e-14 -1.906e-03
2.078e+00 7.555e-01 0.000e+00 1.811e-14 -1.893e-03
2.266e+00 7.555e-01 0.000e+00 1.751e-14 -1.886e-03
2.455e+00 7.555e-01 0.000e+00 1.085e-14 -1.886e-03
2.644e+00 7.555e-01 0.000e+00 1.112e-15 -1.893e-03
2.833e+00 7.555e-01 0.000e+00 -5.354e-15 -1.906e-03
3.022e+00 7.555e-01 0.000e+00 1.374e-15 -1.925e-03
3.211e+00 7.555e-01 0.000e+00 -1.680e-14 -1.948e-03
3.400e+00 7.555e-01 0.000e+00 -7.305e-15 -1.975e-03
3.589e+00 7.555e-01 0.000e+00 -2.552e-14 -2.002e-03
3.777e+00 7.555e-01 0.000e+00 -7.550e-15 -2.030e-03
3.966e+00 7.555e-01 0.000e+00 5.273e-15 -2.056e-03
4.155e+00 7.555e-01 0.000e+00 -1.056e-14 -2.079e-03
4.344e+00 7.555e-01 0.000e+00 1.452e-14 -2.097e-03
4.533e+00 7.555e-01 0.000e+00 8.601e-15 -2.109e-03
0.000e+00 9.443e-01 0.000e+00 1.628e-16 -2.113e-03
1.889e-01 9.443e-01 0.000e+00 9.158e-15 -2.109e-03
3.777e-01 9.443e-01 0.000e+00 5.433e-15 -2.097e-03
5.666e-01 9.443e-01 0.000e+00 1.772e-14 -2.079e-03
7.555e-01 9.443e-01 0.000e+00 3.002e-14 -2.056e-03
9.443e-01 9.443e-01 0.000e+00 3.342e-14 -2.030e-03
1.133e+00 9.443e-01 0.000e+00 1.212e-14 -2.002e-03
1.322e+00 9.443e-01 0.000e+00 3.319e-14 -1.975e-03
1.511e+00 9.443e-01 0.000e+00 3.368e-14 -1.948e-03
1.700e+00 9.443e-01 0.000e+00 2.745e-14 -1.925e-03
1.889e+00 9.443e-01 0.000e+00 3.011e-14 -1.906e-03
2.078e+00 9.443e-01 0.000e+00 1.811e-14 -1.893e-03
2.266e+00 9.443e-01 0.000e+00 1.751e-14 -1.886e-03
2.455e+00 9.443e-01 0.000e+00 1.085e-14 -1.886e-03
2.644e+00 9.443e-01 0.000e+00 1.112e-15 -1.893e-03
2.833e+00 9.443e-01 0.000e+00 -5.354e-15 -1.906e-03
3.022e+00 9.443e-01 0.000e+00 1.374e-15 -1.925e-03
3.211e+00 9.443e-01 0.000e+00 -1.680e-14 -1.948e-03
3.400e+00 9.443e-01 0.000e+00 -7.305e-15 -1.975e-03
3.589e+00 9.443e-01 0.000e+00 -2.552e-14 -2.002e-03
3.777e+00 9.443e-01 0.000e+00 -7.550e-15 -2.030e-03
3.966e+00 9.443e-01 0.000e+00 5.273e-15 -2.056e-03
4.155e+00 9.443e-01 0.000e+00 -1.056e-14 -2.079e-03
4.344e+00 9.443e-01 0.000e+00 1.452e-14 -2.097e-03
4.533e+00 9.443e-01 0.000e+00 8.601e-15 -2.109e-03
0.000e+00 1.133e+00 0.000e+00 1.628e-16 -2.113e-03
1.889e-01 1.133e+00 0.000e+00 9.158e-15 -2.109e-03
3.777e-01 1.133e+00 0.000e+00 5.433e-15 -2.097e-03
5.666e-01 1.133e+00 0.000e+00 1.772e-14 -2.079e-03
7.555e-01 1.133e+00 0.000e+00 3.002e-14 -2.056e-03
9.443e-01 1.133e+00 0.000e+00 3.342e-14 -2.030e-03
1.133e+00 1.133e+00 0.000e+00 1.212e-14 -2.002e-03
1.322e+00 1.133e+00 0.000e+00 3.319e-14 -1.975e-03
1.511e+00 1.133e+00 0.000e+00 3.368e-14 -1.948e-03
1.700e+00 1.133e+00 0.000e+00 2.745e-14 -1.925e-03
1.889e+00 1.133e+00 0.000e+00 3.011e-14 -1.906e-03
2.078e+00 1.133e+00 0.000e+00 1.811e-14 -1.893e-03
2.266e+00 1.133e+00 0.000e+00 1.751e-14 -1.886e-03
2.455e+00 1.133e+00 0.000e+00 1.085e-14 -1.886e-03
2.644e+00 1.133e+00 0.000e+00 1.112e-15 -1.893e-03
2.833e+00 1.133e+00 0.000e+00 -5.354e-15 -1.906e-03
3.022e+00 1.133e+00 0.000e+00 1.374e-15 -1.925e-03
3.211e+00 1.133e+00 0.000e+00 -1.680e-14 -1.948e-03
3.400e+00 1.133e+00 0.000e+00 -7.305e-15 -1.975e-03
3.589e+00 1.133e+00 0.000e+00 -2.552e-14 -2.002e-03
3.777e+00 1.133e+00 0.000e+00 -7.550e-15 -2.030e-03
3.966e+00 1.133e+00 0.000e+00 5.273e-15 -2.056e-03
4.155e+00 1.133e+00 0.000e+00 -1.056e-14 -2.079e-03
4.344e+00 1.133e+00 0.000e+00 1.452e-14 -2.097e-03
4.533e+00 1.133e+00 0.000e+00 8.601e-15 -2.109e-03
0.000e+00 1.322e+00 0.000e+00 1.628e-16 -2.113e-03
1.889e-01 1.322e+00 0.000e+00 9.158e-15 -2.109e-03
3.777e-01 1.322e+00 0.000e+00 5.433e-15 -2.097e-03
5.666e-01 1.322e+00 0.000e+00 1.772e-14 -2.079e-03
7.555e-01 1.322e+00 0.000e+00 3.002e-14 -2.056e-03
9.443e-01 1.322e+00 0.000e+00 3.342e-14 -2.030e-03
1.133e+00 1.322e+00 0.000e+00 1.212e-14 -2.002e-03
1.322e+00 1.322e+00 0.000e+00 3.319e-14 -1.975e-03
1.511e+00 1.322e+00 0.000e+00 3.368e-14 -1.948e-03
1.700e+00 1.322e+00 0.000e+00 2.745e-14 -1.925e-03
1.889e+00 1.322e+00 0.000e+00 3.011e-14 -1.906e-03
2.078e+00 1.322e+00 0.000e+00 1.811e-14 -1.893e-03
2.266e+00 1.322e+00 0.000e+00 1.751e-14 -1.886e-03
2.455e+00 1.322e+00 0.000e+00 1.085e-14 -1.886e-03
2.644e+00 1.322e+00 0.000e+00 1.112e-15 -1.893e-03
2.833e+00 1.322e+00 0.000e+00 -5.354e-15 -1.906e-03
3.022e+00 1.322e+00 0.000e+00 1.374e-15 -1.925e-03
3.211e+00 1.322e+00 0.000e+00 -1.680e-14 -1.948e-03
3.400e+00 1.322e+00 0.000e+00 -7.305e-15 -1.975e-03
3.589e+00 1.322e+00 0.000e+00 -2.552e-14 -2.002e-03
3.777e+00 1.322e+00 0.000e+00 -7.550e-15 -2.030e-03
3.966e+00 1.322e+00 0.000e+00 5.273e-15 -2.056e-03
4.155e+00 1.322e+00 0.000e+00 -1.056e-14 -2.079e-03
4.344e+00 1.322e+00 0.000e+00 1.452e-14 -2.097e-03
4.533e+00 1.322e+00 0.000e+00 8.601e-15 -2.109e-03
0.000e+00 1.511e+00 0.000e+00 1.628e-16 -2.113e-03
1.889e-01 1.511e+00 0.000e+00 9.158e-15 -2.109e-03
3.777e-01 1.511e+00 0.000e+00 5.433e-15 -2.097e-03
5.666e-01 1.511e+00 0.000e+00 1.772e-14 -2.079e-03
7.555e-01 1.511e+00 0.000e+00 3.002e-14 -2.056e-03
9.443e-01 1.511e+00 0.000e+00 3.342e-14 -2.030e-03
1.133e+00 1.511e+00 0.000e+00 1.212e-14 -2.002e-03
1.322e+00 1.511e+00 0.000e+00 3.319e-14 -1.975e-03
1.511e+00 1.511e+00 0.000e+00 3.368e-14 -1.948e-03
1.700e+00 1.511e+00 0.000e+00 2.745e-14 -1.925e-03
1.889e+00 1.511e+00 0.000e+00 3.011e-14 -1.906e-03
2.078e+00 1.511e+00 0.000e+00 1.811e-14 -1.893e-03
2.266e+00 1.511e+00 0.000e+00 1.751e-14 -1.886e-03
2.455e+00 1.511e+00 0.000e+00 1.085e-14 -1.886e-03
2.644e+00 1.511e+00 0.000e+00 1.112e-15 -1.893e-03
2.833e+00 1.511e+00 0.000e+00 -5.354e-15 -1.906e-03
3.022e+00 1.511e+00 0.000e+00 1.374e-15 -1.925e-03
3.211e+00 1.511e+00 0.000e+00 -1.680e-14 -1.948e-03
3.400e+00 1.511e+00 0.000e+00 -7.305e-15 -1.975e-03
3.589e+00 1.511e+00 0.000e+00 -2.552e-14 -2.002e-03
3.777e+00 1.511e+00 0.000e+00 -7.550e-15 -2.030e-03
3.966e+00 1.511e+00 0.000e+00 5.273e-15 -2.056e-03
4.155e+00 1.511e+00 0.000e+00 -1.056e-14 -2.079e-03
4.344e+00 1.511e+00 0.000e+00 1.452e-14 -2.097e-03
4.533e+00 1.511e+00 0.000e+00 8.601e-15 -2.109e-03
0.000e+00 1.700e+00 0.000e+00 1.628e-16 -2.113e-03
1.889e-01 1.700e+00 0.000e+00 9.158e-15 -2.109e-03
3.777e-01 1.700e+00 0.000e+00 5.433e-15 -2.097e-03
5.666e-01 1.700e+00 0.000e+00 1.772e-14 -2.079e-03
7.555e-01 1.700e+00 0.000e+00 3.002e-14 -2.056e-03
9.443e-01 1.700e+00 0.000e+00 3.342e-14 -2.030e-03
1.133e+00 1.700e+00 0.000e+00 1.212e-14 -2.002e-03
1.322e+00 1.700e+00 0.000e+00 3.319e-14 -1.975e-03
1.511e+00 1.700e+00 0.000e+00 3.368e-14 -1.948e-03
1.700e+00 1.700e+00 0.000e+00 2.745e-14 -1.925e-03
1.889e+00 1.700e+00 0.000e+00 3.011e-14 -1.906e-03
2.078e+00 1.700e+00 0.000e+00 1.811e-14 -1.893e-03
2.266e+00 1.700e+00 0.000e+00 1.751e-14 -1.886e-03
2.455e+00 1.700e+00 0.000e+00 1.085e-14 -1.886e-03
2.644e+00 1.700e+00 0.000e+00 1.112e-15 -1.893e-03
2.833e+00 1.700e+00 0.000e+00 -5.354e-15 -1.906e-03
3.022e+00 1.700e+00 0.000e+00 1.374e-15 -1.925e-03
3.211e+00 1.700e+00 0.000e+00 -1.680e-14 -1.948e-03
3.400e+00 1.700e+00 0.000e+00 -7.305e-15 -1.975e-03
3.589e+00 1.700e+00 0.000e+00 -2.552e-14 -2.002e-03
3.777e+00 1.700e+00 0.000e+00 -7.550e-15 -2.030e-03
3.966e+00 1.700e+00 0.000e+00 5.273e-15 -2.056e-03
4.155e+00 1.700e+00 0.000e+00 -1.056e-14 -2.079e-03
4.344e+00 1.700e+00 0.000e+00 1.452e-14 -2.097e-03
4.533e+00 1.700e+00 0.000e+00 8.601e-15 -2.109e-03
0.000e+00 1.889e+00 0.000e+00 1.628e-16 -2.113e-03
1.889e-01 1.889e+00 0.000e+00 9.158e-15 -2.109e-03
3.777e-01 1.889e+00 0.000e+00 5.433e-15 -2.097e-03
5.666e-01 1.889e+00 0.000e+00 1.772e-14 -2.079e-03
7.555e-01 1.889e+00 0.000e+00 3.002e-14 -2.056e-03
9.443e-01 1.889e+00 0.000e+00 3.342e-14 -2.030e-03
1.133e+00 1.889e+00 0.000e+00 1.212e-14 -2.002e-03
1.322e+00 1.889e+00 0.000e+00 3.319e-14 -1.975e-03
1.511e+00 1.889e+00 0.000e+00 3.368e-14 -1.948e-03
1.700e+00 1.889e+00 0.000e+00 2.745e-14 -1.925e-03
1.889e+00 1.889e+00 0.000e+00 3.011e-14 -1.906e-03
2.078e+00 1.889e+00 0.000e+00 1.811e-14 -1.893e-03
2.266e+00 1.889e+00 0.000e+00 1.751e-14 -1.886e-03
2.455e+00 1.889e+00 0.000e+00 1.085e-14 -1.886e-03
2.644e+00 1.889e+00 0.000e+00 1.112e-15 -1.893e-03
2.833e+00 1.889e+00 0.000e+00 -5.354e-15 -1.906e-03
3.022e+00 1.889e+00 0.000e+00 1.374e-15 -1.925e-03
3.211e+00 1.889e+00 0.000e+00 -1.680e-14 -1.948e-03
3.400e+00 1.889e+00 0.000e+00 -7.305e-15 -1.975e-03
3.589e+00 1.889e+00 0.000e+00 -2.552e-14 -2.002e-03
3.777e+00 1.889e+00 0.000e+00 -7.550e-15 -2.030e-03
3.966e+00 1.889e+00 0.000e+00 5.273e-15 -2.056e-03
4.155e+00 1.889e+00 0.000e+00 -1.056e-14 -2.079e-03
4.344e+00 1.889e+00 0.000e+00 1.452e-14 -2.097e-03
4.533e+00 1.889e+00 0.000e+00 8.601e-15 -2.109e-03
0.000e+00 2.078e+00 0.000e+00 1.628e-16 -2.113e-03
1.889e-01 2.078e+00 0.000e+00 9.158e-15 -2.109e-03
3.777e-01 2.078e+00 0.000e+00 5.433e-15 -2.097e-03
5.666e-01 2.078e+00 0.000e+00 1.772e-14 -2.079e-03
7.555e-01 2.078e+00 0.000e+00 3.002e-14 -2.056e-03
9.443e-01 2.078e+00 0.000e+00 3.342e-14 -2.030e-03
1.133e+00 2.078e+00 0.000e+00 1.212e-14 -2.002e-03
1.322e+00 2.078e+00 0.000e+00 3.319e-14 -1.975e-03
1.511e+00 2.078e+00 0.000e+00 3.368e-14 -1.948e-03
1.700e+00 2.078e+00 0.000e+00 2.745e-14 -1.925e-03
1.889e+00 2.078e+00 0.000e+00 3.011e-14 -1.906e-03
2.078e+00 2.078e+00 0.000e+00 1.811e-14 -1.893e-03
2.266e+00 2.078e+00 0.000e+00 1.751e-14 -1.886e-03
2.455e+00 2.078e+00 0.000e+00 1.085e-14 -1.886e-03
2.644e+00 2.078e+00 0.000e+00 1.112e-15 -1.893e-03
2.833e+00 2.078e+00 0.000e+00 -5.354e-15 -1.906e-03
3.022e+00 2.078e+00 0.000e+00 1.374e-15 -1.925e-03
3.211e+00 2.078e+00 0.000e+00 -1.680e-14 -1.948e-03
3.400e+00 2.078e+00 0.000e+00 -7.305e-15 -1.975e-03
3.589e+00 2.078e+00 0.000e+00 -2.552e-14 -2.002e-03
3.777e+00 2.078e+00 0.000e+00 -7.550e-15 -2.030e-03
3.966e+00 2.078e+00 0.000e+00 5.273e-15 -2.056e-03
4.155e+00 2.078e+00 0.000e+00 -1.056e-14 -2.079e-03
4.344e+00 2.078e+00 0.000e+00 1.452e-14 -2.097e-03
4.533e+00 2.078e+00 0.000e+00 8.601e-15 -2.109e-03
0.000e+00 2.266e+00 0.000e+00 1.628e-16 -2.113e-03
1.889e-01 2.266e+00 0.000e+00 9.158e-15 -2.109e-03
3.777e-01 2.266e+00 0.000e+00 5.433e-15 -2.097e-03
5.666e-01 2.266e+00 0.000e+00 1.772e-14 -2.079e-03
7.555e-01 2.266e+00 0.000e+00 3.002e-14 -2.056e-03
9.443e-01 2.266e+00 0.000e+00 3.342e-14 -2.030e-03
1.133e+00 2.266e+00 0.000e+00 1.212e-14 -2.002e-03
1.322e+00 2.266e+00 0.000e+00 3.319e-14 -1.975e-03
1.511e+00 2.266e+00 0.000e+00 3.368e-14 -1.948e-03
1.700e+00 2.266e+00 0.000e+00 2.745e-14 -1.925e-03
1.889e+00 2.266e+00 0.000e+00 3.011e-14 -1.906e-03
2.078e+00 2.266e+00 0.000e+00 1.811e-14 -1.893e-03
2.266e+00 2.266e+00 0.000e+00 1.751e-14 -1.886e-03
2.455e+00 2.266e+00 0.000e+00 1.085e-14 -1.886e-03
2.644e+00 2.266e+00 0.000e+00 1.112e-15 -1.893e-03
2.833e+00 2.266e+00 0.000e+00 -5.354e-15 -1.906e-03
3.022e+00 2.266e+00 0.000e+00 1.374e-15 -1.925e-03
3.211e+00 2.266e+00 0.000e+00 -1.680e-14 -1.948e-03
3.400e+00 2.266e+00 0.000e+00 -7.305e-15 -1.975e-03
3.589e+00 2.266e+00 0.000e+00 -2.552e-14 -2.002e-03
3.777e+00 2.266e+00 0.000e+00 -7.550e-15 -2.030e-03
3.966e+00 2.266e+00 0.000e+00 5.273e-15 -2.056e-03
4.155e+00 2.266e+00 0.000e+00 -1.056e-14 -2.079e-03
4.344e+00 2.266e+00 0.000e+00 1.452e-14 -2.097e-03
4.533e+00 2.266e+00 0.000e+00 8.601e-15 -2.109e-03
0.000e+00 2.455e+00 0.000e+00 1.628e-16 -2.113e-03
1.889e-01 2.455e+00 0.000e+00 9.158e-15 -2.109e-03
3.777e-01 2.455e+00 0.000e+00 5.433e-15 -2.097e-03
5.666e-01 2.455e+00 0.000e+00 1.772e-14 -2.079e-03
7.555e-01 2.455e+00 0.000e+00 3.002e-14 -2.056e-03
9.443e-01 2.455e+00 0.000e+00 3.342e-14 -2.030e-03
1.133e+00 2.455e+00 0.000e+00 1.212e-14 -2.002e-03
1.322e+00 2.455e+00 0.000e+00 3.319e-14 -1.975e-03
1.511e+00 2.455e+00 0.000e+00 3.368e-14 -1.948e-03
1.700e+00 2.455e+00 0.000e+00 2.745e-14 -1.925e-03
1.889e+00 2.455e+00 0.000e+00 3.011e-14 -1.906e-03
2.078e+00 2.455e+00 0.000e+00 1.811e-14 -1.893e-03
2.266e+00 2.455e+00 0.000e+00 1.751e-14 -1.886e-03
2.455e+00 2.455e+00 0.000e+00 1.085e-14 -1.886e-03
2.644e+00 2.455e+00 0.000e+00 1.112e-15 -1.893e-03
2.833e+00 2.455e+00 0.000e+00 -5.354e-15 -1.906e-03
3.022e+00 2.455e+00 0.000e+00 1.374e-15 -1.925e-03
3.211e+00 2.455e+00 0.000e+00 -1.680e-14 -1.948e-03
3.400e+00 2.455e+00 0.000e+00 -7.305e-15 -1.975e-03
3.589e+00 2.455e+00 0.000e+00 -2.552e-14 -2.002e-03
3.777e+00 2.455e+00 0.000e+00 -7.550e-15 -2.030e-03
3.966e+00 2.455e+00 0.000e+00 5.273e-15 -2.056e-03
4.155e+00 2.455e+00 0.000e+00 -1.056e-14 -2.079e-03
4.344e+00 2.455e+00 0.000e+00 1.452e-14 -2.097e-03
4.533e+00 2.455e+00 0.000e+00 8.601e-15 -2.109e-03
0.000e+00 2.644e+00 0.000e+00 1.628e-16 -2.113e-03
1.889e-01 2.644e+00 0.000e+00 9.158e-15 -2.109e-03
3.777e-01 2.644e+00 0.000e+00 5.433e-15 -2.097e-03
5.666e-01 2.644e+00 0.000e+00 1.772e-14 -2.079e-03
7.555e-01 2.644e+00 0.000e+00 3.002e-14 -2.056e-03
9.443e-01 2.644e+00 0.000e+00 3.342e-14 -2.030e-03
1.133e+00 2.644e+00 0.000e+00 1.212e-14 -2.002e-03
1.322e+00 2.644e+00 0.000e+00 3.319e-14 -1.975e-03
1.511e+00 2.644e+00 0.000e+00 3.368e-14 -1.948e-03
1.700e+00 2.644e+00 0.000e+00 2.745e-14 -1.925e-03
1.889e+00 2.644e+00 0.000e+00 3.011e-14 -1.906e-03
2.078e+00 2.644e+00 0.000e+00 1.811e-14 -1.893e-03
2.266e+00 2.644e+00 0.000e+00 1.751e-14 -1.886e-03
2.455e+00 2.644e+00 0.000e+00 1.085e-14 -1.886e-03
2.644e+00 2.644e+00 0.000e+00 1.112e-15 -1.893e-03
2.833e+00 2.644e+00 0.000e+00 -5.354e-15 -1.906e-03
3.022e+00 2.644e+00 0.000e+00 1.374e-15 -1.925e-03
3.211e+00 2.644e+00 0.000e+00 -1.680e-14 -1.948e-03
3.400e+00 2.644e+00 0.000e+00 -7.305e-15 -1.975e-03
3.589e+00 2.644e+00 0.000e+00 -2.552e-14 -2.002e-03
3.777e+00 2.644e+00 0.000e+00 -7.550e-15 -2.030e-03
3.966e+00 2.644e+00 0.000e+00 5.273e-15 -2.056e-03
4.155e+00 2.644e+00 0.000e+00 -1.056e-14 -2.079e-03
4.344e+00 2.644e+00 0.000e+00 1.452e-14 -2.097e-03
4.533e+00 2.644e+00 0.000e+00 8.601e-15 -2.109e-03
0.000e+00 2.833e+00 0.000e+00 1.628e-16 -2.113e-03
1.889e-01 2.833e+00 0.000e+00 9.158e-15 -2.109e-03
3.777e-01 2.833e+00 0.000e+00 5.433e-15 -2.097e-03
5.666e-01 2.833e+00 0.000e+00 1.772e-14 -2.079e-03
7.555e-01 2.833e+00 0.000e+00 3.002e-14 -2.056e-03
9.443e-01 2.833e+00 0.000e+00 3.342e-14 -2.030e-03
1.133e+00 2.833e+00 0.000e+00 1.212e-14 -2.002e-03
1.322e+00 2.833e+00 0.000e+00 3.319e-14 -1.975e-03
1.511e+00 2.833e+00 0.000e+00 3.368e-14 -1.948e-03
1.700e+00 2.833e+00 0.000e+00 2.745e-14 -1.925e-03
1.889e+00 2.833e+00 0.000e+00 3.011e-14 -1.906e-03
2.078e+00 2.833e+00 0.000e+00 1.811e-14 -1.893e-03
2.266e+00 2.833e+00 0.000e+00 1.751e-14 -1.886e-03
2.455e+00 2.833e+00 0.000e+00 1.085e-14 -1.886e-03
2.644e+00 2.833e+00 0.000e+00 1.112e-15 -1.893e-03
2.833e+00 2.833e+00 0.000e+00 -5.354e-15 -1.906e-03
3.022e+00 2.833e+00 0.000e+00 1.374e-15 -1.925e-03
3.211e+00 2.833e+00 0.000e+00 -1.680e-14 -1.948e-03
3.400e+00 2.833e+00 0.000e+00 -7.305e-15 -1.975e-03
3.589e+00 2.833e+00 0.000e+00 -2.552e-14 -2.002e-03
3.777e+00 2.833e+00 0.000e+00 -7.550e-15 -2.030e-03
3.966e+00 2.833e+00 0.000e+00 5.273e-15 -2.056e-03
4.155e+00 2.833e+00 0.000e+00 -1.056e-14 -2.079e-03
4.344e+00 2.833e+00 0.000e+00 1.452e-14 -2.097e-03
4.533e+00 2.833e+00 0.000e+00 8.601e-15 -2.109e-03
0.000e+00 3.022e+00 0.000e+00 1.628e-16 -2.113e-03
1.889e-01 3.022e+00 0.000e+00 9.158e-15 -2.109e-03
3.777e-01 3.022e+00 0.000e+00 5.433e-15 -2.097e-03
5.666e-01 3.022e+00 0.000e+00 1.772e-14 -2.079e-03
7.555e-01 3.022e+00 0.000e+00 3.002e-14 -2.056e-03
9.443e-01 3.022e+00 0.000e+00 3.342e-14 -2.030e-03
1.133e+00 3.022e+00 0.000e+00 1.212e-14 -2.002e-03
1.322e+00 3.022e+00 0.000e+00 3.319e-14 -1.975e-03
1.511e+00 3.022e+00 0.000e+00 3.368e-14 -1.948e-03
1.700e+00 3.022e+00 0.000e+00 2.745e-14 -1.925e-03
1.889e+00 3.022e+00 0.000e+00 3.011e-14 -1.906e-03
2.078e+00 3.022e+00 0.000e+00 1.811e-14 -1.893e-03
2.266e+00 3.022e+00 0.000e+00 1.751e-14 -1.886e-03
2.455e+00 3.022e+00 0.000e+00 1.085e-14 -1.886e-03
2.644e+00 3.022e+00 0.000e+00 1.112e-15 -1.893e-03
2.833e+00 3.022e+00 0.000e+00 -5.354e-15 -1.906e-03
3.022e+00 3.022e+00 0.000e+00 1.374e-15 -1.925e-03
3.211e+00 3.022e+00 0.000e+00 -1.680e-14 -1.948e-03
3.400e+00 3.022e+00 0.000e+00 -7.305e-15 -1.975e-03
3.589e+00 3.022e+00 0.000e+00 -2.552e-14 -2.002e-03
3.777e+00 3.022e+00 0.000e+00 -7.550e-15 -2.030e-03
3.966e+00 3.022e+00 0.000e+00 5.273e-15 -2.056e-03
4.155e+00 3.022e+00 0.000e+00 -1.056e-14 -2.079e-03
4.344e+00 3.022e+00 0.000e+00 1.452e-14 -2.097e-03
4.533e+00 3.022e+00 0.000e+00 8.601e-15 -2.109e-03
0.000e+00 3.211e+00 0.000e+00 1.628e-16 -2.113e-03
1.889e-01 3.211e+00 0.000e+00 9.158e-15 -2.109e-03
3.777e-01 3.211e+00 0.000e+00 5.433e-15 -2.097e-03
5.666e-01 3.211e+00 0.000e+00 1.772e-14 -2.079e-03
7.555e-01 3.211e+00 0.000e+00 3.002e-14 -2.056e-03
9.443e-01 3.211e+00 0.000e+00 3.342e-14 -2.030e-03
1.133e+00 3.211e+00 0.000e+00 1.212e-14 -2.002e-03
1.322e+00 3.211e+00 0.000e+00 3.319e-14 -1.975e-03
1.511e+00 3.211e+00 0.000e+00 3.368e-14 -1.948e-03
1.700e+00 3.211e+00 0.000e+00 2.745e-14 -1.925e-03
1.889e+00 3.211e+00 0.000e+00 3.011e-14 -1.906e-03
2.078e+00 3.211e+00 0.000e+00 1.811e-14 -1.893e-03
2.266e+00 3.211e+00 0.000e+00 1.751e-14 -1.886e-03
2.455e+00 3.211e+00 0.000e+00 1.085e-14 -1.886e-03
2.644e+00 3.211e+00 0.000e+00 1.112e-15 -1.893e-03
2.833e+00 3.211e+00 0.000e+00 -5.354e-15 -1.906e-03
3.022e+00 3.211e+00 0.000e+00 1.374e-15 -1.925e-03
3.211e+00 3.211e+00 0.000e+00 -1.680e-14 -1.948e-03
3.400e+00 3.211e+00 0.000e+00 -7.305e-15 -1.975e-03
3.589e+00 3.211e+00 0.000e+00 -2.552e-14 -2.002e-03
3.777e+00 3.211e+00 0.000e+00 -7.550e-15 -2.030e-03
3.966e+00 3.211e+00 0.000e+00 5.273e-15 -2.056e-03
4.155e+00 3.211e+00 0.000e+00 -1.056e-14 -2.079e-03
4.344e+00 3.211e+00 0.000e+00 1.452e-14 -2.097e-03
4.533e+00 3.211e+00 0.000e+00 8.601e-15 -2.109e-03
0.000e+00 3.400e+00 0.000e+00 1.628e-16 -2.113e-03
1.889e-01 3.400e+00 0.000e+00 9.158e-15 -2.109e-03
3.777e-01 3.400e+00 0.000e+00 5.433e-15 -2.097e-03
5.666e-01 3.400e+00 0.000e+00 1.772e-14 -2.079e-03
7.555e-01 3.400e+00 0.000e+00 3.002e-14 -2.056e-03
9.443e-01 3.400e+00 0.000e+00 3.342e-14 -2.030e-03
1.133e+00 3.400e+00 0.000e+00 1.212e-14 -2.002e-03
1.322e+00 3.400e+00 0.000e+00 3.319e-14 -1.975e-03
1.511e+00 3.400e+00 0.000e+00 3.368e-14 -1.948e-03
1.700e+00 3.400e+00 0.000e+00 2.745e-14 -1.925e-03
1.889e+00 3.400e+00 0.000e+00 3.011e-14 -1.906e-03
2.078e+00 3.400e+00 0.000e+00 1.811e-14 -1.893e-03
2.266e+00 3.400e+00 0.000e+00 1.751e-14 -1.886e-03
2.455e+00 3.400e+00 0.000e+00 1.085e-14 -1.886e-03
2.644e+00 3.400e+00 0.000e+00 1.112e-15 -1.893e-03
2.833e+00 3.400e+00 0.000e+00 -5.354e-15 -1.906e-03
3.022e+00 3.400e+00 0.000e+00 1.374e-15 -1.925e-03
3.211e+00 3.400e+00 0.000e+00 -1.680e-14 -1.948e-03
3.400e+00 3.400e+00 0.000e+00 -7.305e-15 -1.975e-03
3.589e+00 3.400e+00 0.000e+00 -2.552e-14 -2.002e-03
3.777e+00 3.400e+00 0.000e+00 -7.550e-15 -2.030e-03
3.966e+00 3.400e+00 0.000e+00 5.273e-15 -2.056e-03
4.155e+00 3.400e+00 0.000e+00 -1.056e-14 -2.079e-03
4.344e+00 3.400e+00 0.000e+00 1.452e-14 -2.097e-03
4.533e+00 3.400e+00 0.000e+00 8.601e-15 -2.109e-03
0.000e+00 3.589e+00 0.000e+00 1.628e-16 -2.113e-03
1.889e-01 3.589e+00 0.000e+00 9.158e-15 -2.109e-03
3.777e-01 3.589e+00 0.000e+00 5.433e-15 -2.097e-03
5.666e-01 3.589e+00 0.000e+00 1.772e-14 -2.079e-03
7.555e-01 3.589e+00 0.000e+00 3.002e-14 -2.056e-03
9.443e-01 3.589e+00 0.000e+00 3.342e-14 -2.030e-03
1.133e+00 3.589e+00 0.000e+00 1.212e-14 -2.002e-03
1.322e+00 3.589e+00 0.000e+00 3.319e-14 -1.975e-03
1.511e+00 3.589e+00 0.000e+00 3.368e-14 -1.948e-03
1.700e+00 3.589e+00 0.000e+00 2.745e-14 -1.925e-03
1.889e+00 3.589e+00 0.000e+00 3.011e-14 -1.906e-03
2.078e+00 3.589e+00 0.000e+00 1.811e-14 -1.893e-03
2.266e+00 3.589e+00 0.000e+00 1.751e-14 -1.886e-03
2.455e+00 3.589e+00 0.000e+00 1.085e-14 -1.886e-03
2.644e+00 3.589e+00 0.000e+00 1.112e-15 -1.893e-03
2.833e+00 3.589e+00 0.000e+00 -5.354e-15 -1.906e-03
3.022e+00 3.589e+00 0.000e+00 1.374e-15 -1.925e-03
3.211e+00 3.589e+00 0.000e+00 -1.680e-14 -1.948e-03
3.400e+00 3.589e+00 0.000e+00 -7.305e-15 -1.975e-03
3.589e+00 3.589e+00 0.000e+00 -2.552e-14 -2.002e-03
3.777e+00 3.589e+00 0.000e+00 -7.550e-15 -2.030e-03
3.966e+00 3.589e+00 0.000e+00 5.273e-15 -2.056e-03
4.155e+00 3.589e+00 0.000e+00 -1.056e-14 -2.079e-03
4.344e+00 3.589e+00 0.000e+00 1.452e-14 -2.097e-03
4.533e+00 3.589e+00 0.000e+00 8.601e-15 -2.109e-03
0.000e+00 3.777e+00 0.000e+00 1.628e-16 -2.113e-03
1.889e-01 3.777e+00 0.000e+00 9.158e-15 -2.109e-03
3.777e-01 3.777e+00 0.000e+00 5.433e-15 -2.097e-03
5.666e-01 3.777e+00 0.000e+00 1.772e-14 -2.079e-03
7.555e-01 3.777e+00 0.000e+00 3.002e-14 -2.056e-03
9.443e-01 3.777e+00 0.000e+00 3.342e-14 -2.030e-03
1.133e+00 3.777e+00 0.000e+00 1.212e-14 -2.002e-03
1.322e+00 3.777e+00 0.000e+00 3.319e-14 -1.975e-03
1.511e+00 3.777e+00 0.000e+00 3.368e-14 -1.948e-03
1.700e+00 3.777e+00 0.000e+00 2.745e-14 -1.925e-03
1.889e+00 3.777e+00 0.000e+00 3.011e-14 -1.906e-03
2.078e+00 3.777e+00 0.000e+00 1.811e-14 -1.893e-03
2.266e+00 3.777e+00 0.000e+00 1.751e-14 -1.886e-03
2.455e+00 3.777e+00 0.000e+00 1.085e-14 -1.886e-03
2.644e+00 3.777e+00 0.000e+00 1.112e-15 -1.893e-03
2.833e+00 3.777e+00 0.000e+00 -5.354e-15 -1.906e-03
3.022e+00 3.777e+00 0.000e+00 1.374e-15 -1.925e-03
3.211e+00 3.777e+00 0.000e+00 -1.680e-14 -1.948e-03
3.400e+00 3.777e+00 0.000e+00 -7.305e-15 -1.975e-03
3.589e+00 3.777e+00 0.000e+00 -2.552e-14 -2.002e-03
3.777e+00 3.777e+00 0.000e+00 -7.550e-15 -2.030e-03
3.966e+00 3.777e+00 0.000e+00 5.273e-15 -2.056e-03
4.155e+00 3.777e+00 0.000e+00 -1.056e-14 -2.079e-03
4.344e+00 3.777e+00 0.000e+00 1.452e-14 -2.097e-03
4.533e+00 3.777e+00 0.000e+00 8.601e-15 -2.109e-03
0.000e+00 3.966e+00 0.000e+00 1.628e-16 -2.113e-03
1.889e-01 3.966e+00 0.000e+00 9.158e-15 -2.109e-03
3.777e-01 3.966e+00 0.000e+00 5.433e-15 -2.097e-03
5.666e-01 3.966e+00 0.000e+00 1.772e-14 -2.079e-03
7.555e-01 3.966e+00 0.000e+00 3.002e-14 -2.056e-03
9.443e-01 3.966e+00 0.000e+00 3.342e-14 -2.030e-03
1.133e+00 3.966e+00 0.000e+00 1.212e-14 -2.002e-03
1.322e+00 3.966e+00 0.000e+00 3.319e-14 -1.975e-03
1.511e+00 3.966e+00 0.000e+00 3.368e-14 -1.948e-03
1.700e+00 3.966e+00 0.000e+00 2.745e-14 -1.925e-03
1.889e+00 3.966e+00 0.000e+00 3.011e-14 -1.906e-03
2.078e+00 3.966e+00 0.000e+00 1.811e-14 -1.893e-03
2.266e+00 3.966e+00 0.000e+00 1.751e-14 -1.886e-03
2.455e+00 3.966e+00 0.000e+00 1.085e-14 -1.886e-03
2.644e+00 3.966e+00 0.000e+00 1.112e-15 -1.893e-03
2.833e+00 3.966e+00 0.000e+00 -5.354e-15 -1.906e-03
3.022e+00 3.966e+00 0.000e+00 1.374e-15 -1.925e-03
3.211e+00 3.966e+00 0.000e+00 -1.680e-14 -1.948e-03
3.400e+00 3.966e+00 0.000e+00 -7.305e-15 -1.975e-03
3.589e+00 3.966e+00 0.000e+00 -2.552e-14 -2.002e-03
3.777e+00 3.966e+00 0.000e+00 -7.550e-15 -2.030e-03
3.966e+00 3.966e+00 0.000e+00 5.273e-15 -2.056e-03
4.155e+00 3.966e+00 0.000e+00 -1.056e-14 -2.079e-03
4.344e+00 3.966e+00 0.000e+00 1.452e-14 -2.097e-03
4.533e+00 3.966e+00 0.000e+00 8.601e-15 -2.109e-03
0.000e+00 4.155e+00 0.000e+00 1.628e-16 -2.113e-03
1.889e-01 4.155e+00 0.000e+00 9.158e-15 -2.109e-03
3.777e-01 4.155e+00 0.000e+00 5.433e-15 -2.097e-03
5.666e-01 4.155e+00 0.000e+00 1.772e-14 -2.079e-03
7.555e-01 4.155e+00 0.000e+00 3.002e-14 -2.056e-03
9.443e-01 4.155e+00 0.000e+00 3.342e-14 -2.030e-03
1.133e+00 4.155e+00 0.000e+00 1.212e-14 -2.002e-03
1.322e+00 4.155e+00 0.000e+00 3.319e-14 -1.975e-03
1.511e+00 4.155e+00 0.000e+00 3.368e-14 -1.948e-03
1.700e+00 4.155e+00 0.000e+00 2.745e-14 -1.925e-03
1.889e+00 4.155e+00 0.000e+00 3.011e-14 -1.906e-03
2.078e+00 4.155e+00 0.000e+00 1.811e-14 -1.893e-03
2.266e+00 4.155e+00 0.000e+00 1.751e-14 -1.886e-03
2.455e+00 4.155e+00 0.000e+00 1.085e-14 -1.886e-03
2.644e+00 4.155e+00 0.000e+00 1.112e-15 -1.893e-03
2.833e+00 4.155e+00 0.000e+00 -5.354e-15 -1.906e-03
3.022e+00 4.155e+00 0.000e+00 1.374e-15 -1.925e-03
3.211e+00 4.155e+00 0.000e+00 -1.680e-14 -1.948e-03
3.400e+00 4.155e+00 0.000e+00 -7.305e-15 -1.975e-03
3.589e+00 4.155e+00 0.000e+00 -2.552e-14 -2.002e-03
3.777e+00 4.155e+00 0.000e+00 -7.550e-15 -2.030e-03
3.966e+00 4.155e+00 0.000e+00 5.273e-15 -2.056e-03
4.155e+00 4.155e+00 0.000e+00 -1.056e-14 -2.079e-03
4.344e+00 4.155e+00 0.000e+00 1.452e-14 -2.097e-03
4.533e+00 4.155e+00 0.000e+00 8.601e-15 -2.109e-03
0.000e+00 4.344e+00 0.000e+00 1.628e-16 -2.113e-03
1.889e-01 4.344e+00 0.000e+00 9.158e-15 -2.109e-03
3.777e-01 4.344e+00 0.000e+00 5.433e-15 -2.097e-03
5.666e-01 4.344e+00 0.000e+00 1.772e-14 -2.079e-03
7.555e-01 4.344e+00 0.000e+00 3.002e-14 -2.056e-03
9.443e-01 4.344e+00 0.000e+00 3.342e-14 -2.030e-03
1.133e+00 4.344e+00 0.000e+00 1.212e-14 -2.002e-03
1.322e+00 4.344e+00 0.000e+00 3.319e-14 -1.975e-03