TITLE = "wbcm"
VARIABLES = "X", "Y", "Z", "Real", "Imaginary"
ZONE I=25, J=25, K=75, F=POINT
0.000e+00 0.000e+00 0.000e+00 -1.029e-03 -1.640e-14
1.889e-01 0.000e+00 0.000e+00 -1.029e-03 -1.372e-14
3.777e-01 0.000e+00 0.000e+00 -1.030e-03 -2.266e-14
5.666e-01 0.000e+00 0.000e+00 -1.031e-03 -2.357e-14
7.555e-01 0.000e+00 0.000e+00 -1.032e-03 -1.701e-14
9.443e-01 0.000e+00 0.000e+00 -1.034e-03 -7.624e-15
1.133e+00 0.000e+00 0.000e+00 -1.036e-03 8.605e-15
1.322e+00 0.000e+00 0.000e+00 -1.039e-03 -1.772e-14
1.511e+00 0.000e+00 0.000e+00 -1.041e-03 -5.495e-15
1.700e+00 0.000e+00 0.000e+00 -1.043e-03 1.069e-14
1.889e+00 0.000e+00 0.000e+00 -1.045e-03 1.506e-14
2.078e+00 0.000e+00 0.000e+00 -1.046e-03 1.607e-14
2.266e+00 0.000e+00 0.000e+00 -1.047e-03 -4.383e-15
2.455e+00 0.000e+00 0.000e+00 -1.047e-03 2.998e-16
2.644e+00 0.000e+00 0.000e+00 -1.046e-03 4.818e-15
2.833e+00 0.000e+00 0.000e+00 -1.045e-03 -3.521e-15
3.022e+00 0.000e+00 0.000e+00 -1.043e-03 -2.061e-15
3.211e+00 0.000e+00 0.000e+00 -1.041e-03 -5.301e-16
3.400e+00 0.000e+00 0.000e+00 -1.039e-03 -1.528e-14
3.589e+00 0.000e+00 0.000e+00 -1.036e-03 -5.927e-15
3.777e+00 0.000e+00 0.000e+00 -1.034e-03 2.017e-14
3.966e+00 0.000e+00 0.000e+00 -1.032e-03 -5.841e-15
4.155e+00 0.000e+00 0.000e+00 -1.031e-03 -2.108e-14
4.344e+00 0.000e+00 0.000e+00 -1.030e-03 -1.852e-14
4.533e+00 0.000e+00 0.000e+00 -1.029e-03 1.809e-14
0.000e+00 1.889e-01 0.000e+00 -1.029e-03 -1.640e-14
1.889e-01 1.889e-01 0.000e+00 -1.029e-03 -1.372e-14
3.777e-01 1.889e-01 0.000e+00 -1.030e-03 -2.266e-14
5.666e-01 1.889e-01 0.000e+00 -1.031e-03 -2.357e-14
7.555e-01 1.889e-01 0.000e+00 -1.032e-03 -1.701e-14
9.443e-01 1.889e-01 0.000e+00 -1.034e-03 -7.624e-15
1.133e+00 1.889e-01 0.000e+00 -1.036e-03 8.605e-15
1.322e+00 1.889e-01 0.000e+00 -1.039e-03 -1.772e-14
1.511e+00 1.889e-01 0.000e+00 -1.041e-03 -5.495e-15
1.700e+00 1.889e-01 0.000e+00 -1.043e-03 1.069e-14
1.889e+00 1.889e-01 0.000e+00 -1.045e-03 1.506e-14
2.078e+00 1.889e-01 0.000e+00 -1.046e-03 1.607e-14
2.266e+00 1.889e-01 0.000e+00 -1.047e-03 -4.383e-15
2.455e+00 1.889e-01 0.000e+00 -1.047e-03 2.998e-16
2.644e+00 1.889e-01 0.000e+00 -1.046e-03 4.818e-15
2.833e+00 1.889e-01 0.000e+00 -1.045e-03 -3.521e-15
3.022e+00 1.889e-01 0.000e+00 -1.043e-03 -2.061e-15
3.211e+00 1.889e-01 0.000e+00 -1.041e-03 -5.301e-16
3.400e+00 1.889e-01 0.000e+00 -1.039e-03 -1.528e-14
3.589e+00 1.889e-01 0.000e+00 -1.036e-03 -5.927e-15
3.777e+00 1.889e-01 0.000e+00 -1.034e-03 2.017e-14
3.966e+00 1.889e-01 0.000e+00 -1.032e-03 -5.841e-15
4.155e+00 1.889e-01 0.000e+00 -1.031e-03 -2.108e-14
4.344e+00 1.889e-01 0.000e+00 -1.030e-03 -1.852e-14
4.533e+00 1.889e-01 0.000e+00 -1.029e-03 1.809e-14
0.000e+00 3.777e-01 0.000e+00 -1.029e-03 -1.640e-14
1.889e-01 3.777e-01 0.000e+00 -1.029e-03 -1.372e-14
3.777e-01 3.777e-01 0.000e+00 -1.030e-03 -2.266e-14
5.666e-01 3.777e-01 0.000e+00 -1.031e-03 -2.357e-14
7.555e-01 3.777e-01 0.000e+00 -1.032e-03 -1.701e-14
9.443e-01 3.777e-01 0.000e+00 -1.034e-03 -7.624e-15
1.133e+00 3.777e-01 0.000e+00 -1.036e-03 8.605e-15
1.322e+00 3.777e-01 0.000e+00 -1.039e-03 -1.772e-14
1.511e+00 3.777e-01 0.000e+00 -1.041e-03 -5.495e-15
1.700e+00 3.777e-01 0.000e+00 -1.043e-03 1.069e-14
1.889e+00 3.777e-01 0.000e+00 -1.045e-03 1.506e-14
2.078e+00 3.777e-01 0.000e+00 -1.046e-03 1.607e-14
2.266e+00 3.777e-01 0.000e+00 -1.047e-03 -4.383e-15
2.455e+00 3.777e-01 0.000e+00 -1.047e-03 2.998e-16
2.644e+00 3.777e-01 0.000e+00 -1.046e-03 4.818e-15
2.833e+00 3.777e-01 0.000e+00 -1.045e-03 -3.521e-15
3.022e+00 3.777e-01 0.000e+00 -1.043e-03 -2.061e-15
3.211e+00 3.777e-01 0.000e+00 -1.041e-03 -5.301e-16
3.400e+00 3.777e-01 0.000e+00 -1.039e-03 -1.528e-14
3.589e+00 3.777e-01 0.000e+00 -1.036e-03 -5.927e-15
3.777e+00 3.777e-01 0.000e+00 -1.034e-03 2.017e-14
3.966e+00 3.777e-01 0.000e+00 -1.032e-03 -5.841e-15
4.155e+00 3.777e-01 0.000e+00 -1.031e-03 -2.108e-14
4.344e+00 3.777e-01 0.000e+00 -1.030e-03 -1.852e-14
4.533e+00 3.777e-01 0.000e+00 -1.029e-03 1.809e-14
0.000e+00 5.666e-01 0.000e+00 -1.029e-03 -1.640e-14
1.889e-01 5.666e-01 0.000e+00 -1.029e-03 -1.372e-14
3.777e-01 5.666e-01 0.000e+00 -1.030e-03 -2.266e-14
5.666e-01 5.666e-01 0.000e+00 -1.031e-03 -2.357e-14
7.555e-01 5.666e-01 0.000e+00 -1.032e-03 -1.701e-14
9.443e-01 5.666e-01 0.000e+00 -1.034e-03 -7.624e-15
1.133e+00 5.666e-01 0.000e+00 -1.036e-03 8.605e-15
1.322e+00 5.666e-01 0.000e+00 -1.039e-03 -1.772e-14
1.511e+00 5.666e-01 0.000e+00 -1.041e-03 -5.495e-15
1.700e+00 5.666e-01 0.000e+00 -1.043e-03 1.069e-14
1.889e+00 5.666e-01 0.000e+00 -1.045e-03 1.506e-14
2.078e+00 5.666e-01 0.000e+00 -1.046e-03 1.607e-14
2.266e+00 5.666e-01 0.000e+00 -1.047e-03 -4.383e-15
2.455e+00 5.666e-01 0.000e+00 -1.047e-03 2.998e-16
2.644e+00 5.666e-01 0.000e+00 -1.046e-03 4.818e-15
2.833e+00 5.666e-01 0.000e+00 -1.045e-03 -3.521e-15
3.022e+00 5.666e-01 0.000e+00 -1.043e-03 -2.061e-15
3.211e+00 5.666e-01 0.000e+00 -1.041e-03 -5.301e-16
3.400e+00 5.666e-01 0.000e+00 -1.039e-03 -1.528e-14
3.589e+00 5.666e-01 0.000e+00 -1.036e-03 -5.927e-15
3.777e+00 5.666e-01 0.000e+00 -1.034e-03 2.017e-14
3.966e+00 5.666e-01 0.000e+00 -1.032e-03 -5.841e-15
4.155e+00 5.666e-01 0.000e+00 -1.031e-03 -2.108e-14
4.344e+00 5.666e-01 0.000e+00 -1.030e-03 -1.852e-14
4.533e+00 5.666e-01 0.000e+00 -1.029e-03 1.809e-14
0.000e+00 7.555e-01 0.000e+00 -1.029e-03 -1.640e-14
1.889e-01 7.555e-01 0.000e+00 -1.029e-03 -1.372e-14
3.777e-01 7.555e-01 0.000e+00 -1.030e-03 -2.266e-14
5.666e-01 7.555e-01 0.000e+00 -1.031e-03 -2.357e-14
7.555e-01 7.555e-01 0.000e+00 -1.032e-03 -1.701e-14
9.443e-01 7.555e-01 0.000e+00 -1.034e-03 -7.624e-15
1.133e+00 7.555e-01 0.000e+00 -1.036e-03 8.605e-15
1.322e+00 7.555e-01 0.000e+00 -1.039e-03 -1.772e-14
1.511e+00 7.555e-01 0.000e+00 -1.041e-03 -5.495e-15
1.700e+00 7.555e-01 0.000e+00 -1.043e-03 1.069e-14
1.889e+00 7.555e-01 0.000e+00 -1.045e-03 1.506e-14
2.078e+00 7.555e-01 0.000e+00 -1.046e-03 1.607e-14
2.266e+00 7.555e-01 0.000e+00 -1.047e-03 -4.383e-15
2.455e+00 7.555e-01 0.000e+00 -1.047e-03 2.998e-16
2.644e+00 7.555e-01 0.000e+00 -1.046e-03 4.818e-15
2.833e+00 7.555e-01 0.000e+00 -1.045e-03 -3.521e-15
3.022e+00 7.555e-01 0.000e+00 -1.043e-03 -2.061e-15
3.211e+00 7.555e-01 0.000e+00 -1.041e-03 -5.301e-16
3.400e+00 7.555e-01 0.000e+00 -1.039e-03 -1.528e-14
3.589e+00 7.555e-01 0.000e+00 -1.036e-03 -5.927e-15
3.777e+00 7.555e-01 0.000e+00 -1.034e-03 2.017e-14
3.966e+00 7.555e-01 0.000e+00 -1.032e-03 -5.841e-15
4.155e+00 7.555e-01 0.000e+00 -1.031e-03 -2.108e-14
4.344e+00 7.555e-01 0.000e+00 -1.030e-03 -1.852e-14
4.533e+00 7.555e-01 0.000e+00 -1.029e-03 1.809e-14
0.000e+00 9.443e-01 0.000e+00 -1.029e-03 -1.640e-14
1.889e-01 9.443e-01 0.000e+00 -1.029e-03 -1.372e-14
3.777e-01 9.443e-01 0.000e+00 -1.030e-03 -2.266e-14
5.666e-01 9.443e-01 0.000e+00 -1.031e-03 -2.357e-14
7.555e-01 9.443e-01 0.000e+00 -1.032e-03 -1.701e-14
9.443e-01 9.443e-01 0.000e+00 -1.034e-03 -7.624e-15
1.133e+00 9.443e-01 0.000e+00 -1.036e-03 8.605e-15
1.322e+00 9.443e-01 0.000e+00 -1.039e-03 -1.772e-14
1.511e+00 9.443e-01 0.000e+00 -1.041e-03 -5.495e-15
1.700e+00 9.443e-01 0.000e+00 -1.043e-03 1.069e-14
1.889e+00 9.443e-01 0.000e+00 -1.045e-03 1.506e-14
2.078e+00 9.443e-01 0.000e+00 -1.046e-03 1.607e-14
2.266e+00 9.443e-01 0.000e+00 -1.047e-03 -4.383e-15
2.455e+00 9.443e-01 0.000e+00 -1.047e-03 2.998e-16
2.644e+00 9.443e-01 0.000e+00 -1.046e-03 4.818e-15
2.833e+00 9.443e-01 0.000e+00 -1.045e-03 -3.521e-15
3.022e+00 9.443e-01 0.000e+00 -1.043e-03 -2.061e-15
3.211e+00 9.443e-01 0.000e+00 -1.041e-03 -5.301e-16
3.400e+00 9.443e-01 0.000e+00 -1.039e-03 -1.528e-14
3.589e+00 9.443e-01 0.000e+00 -1.036e-03 -5.927e-15
3.777e+00 9.443e-01 0.000e+00 -1.034e-03 2.017e-14
3.966e+00 9.443e-01 0.000e+00 -1.032e-03 -5.841e-15
4.155e+00 9.443e-01 0.000e+00 -1.031e-03 -2.108e-14
4.344e+00 9.443e-01 0.000e+00 -1.030e-03 -1.852e-14
4.533e+00 9.443e-01 0.000e+00 -1.029e-03 1.809e-14
0.000e+00 1.133e+00 0.000e+00 -1.029e-03 -1.640e-14
1.889e-01 1.133e+00 0.000e+00 -1.029e-03 -1.372e-14
3.777e-01 1.133e+00 0.000e+00 -1.030e-03 -2.266e-14
5.666e-01 1.133e+00 0.000e+00 -1.031e-03 -2.357e-14
7.555e-01 1.133e+00 0.000e+00 -1.032e-03 -1.701e-14
9.443e-01 1.133e+00 0.000e+00 -1.034e-03 -7.624e-15
1.133e+00 1.133e+00 0.000e+00 -1.036e-03 8.605e-15
1.322e+00 1.133e+00 0.000e+00 -1.039e-03 -1.772e-14
1.511e+00 1.133e+00 0.000e+00 -1.041e-03 -5.495e-15
1.700e+00 1.133e+00 0.000e+00 -1.043e-03 1.069e-14
1.889e+00 1.133e+00 0.000e+00 -1.045e-03 1.506e-14
2.078e+00 1.133e+00 0.000e+00 -1.046e-03 1.607e-14
2.266e+00 1.133e+00 0.000e+00 -1.047e-03 -4.383e-15
2.455e+00 1.133e+00 0.000e+00 -1.047e-03 2.998e-16
2.644e+00 1.133e+00 0.000e+00 -1.046e-03 4.818e-15
2.833e+00 1.133e+00 0.000e+00 -1.045e-03 -3.521e-15
3.022e+00 1.133e+00 0.000e+00 -1.043e-03 -2.061e-15
3.211e+00 1.133e+00 0.000e+00 -1.041e-03 -5.301e-16
3.400e+00 1.133e+00 0.000e+00 -1.039e-03 -1.528e-14
3.589e+00 1.133e+00 0.000e+00 -1.036e-03 -5.927e-15
3.777e+00 1.133e+00 0.000e+00 -1.034e-03 2.017e-14
3.966e+00 1.133e+00 0.000e+00 -1.032e-03 -5.841e-15
4.155e+00 1.133e+00 0.000e+00 -1.031e-03 -2.108e-14
4.344e+00 1.133e+00 0.000e+00 -1.030e-03 -1.852e-14
4.533e+00 1.133e+00 0.000e+00 -1.029e-03 1.809e-14
0.000e+00 1.322e+00 0.000e+00 -1.029e-03 -1.640e-14
1.889e-01 1.322e+00 0.000e+00 -1.029e-03 -1.372e-14
3.777e-01 1.322e+00 0.000e+00 -1.030e-03 -2.266e-14
5.666e-01 1.322e+00 0.000e+00 -1.031e-03 -2.357e-14
7.555e-01 1.322e+00 0.000e+00 -1.032e-03 -1.701e-14
9.443e-01 1.322e+00 0.000e+00 -1.034e-03 -7.624e-15
1.133e+00 1.322e+00 0.000e+00 -1.036e-03 8.605e-15
1.322e+00 1.322e+00 0.000e+00 -1.039e-03 -1.772e-14
1.511e+00 1.322e+00 0.000e+00 -1.041e-03 -5.495e-15
1.700e+00 1.322e+00 0.000e+00 -1.043e-03 1.069e-14
1.889e+00 1.322e+00 0.000e+00 -1.045e-03 1.506e-14
2.078e+00 1.322e+00 0.000e+00 -1.046e-03 1.607e-14
2.266e+00 1.322e+00 0.000e+00 -1.047e-03 -4.383e-15
2.455e+00 1.322e+00 0.000e+00 -1.047e-03 2.998e-16
2.644e+00 1.322e+00 0.000e+00 -1.046e-03 4.818e-15
2.833e+00 1.322e+00 0.000e+00 -1.045e-03 -3.521e-15
3.022e+00 1.322e+00 0.000e+00 -1.043e-03 -2.061e-15
3.211e+00 1.322e+00 0.000e+00 -1.041e-03 -5.301e-16
3.400e+00 1.322e+00 0.000e+00 -1.039e-03 -1.528e-14
3.589e+00 1.322e+00 0.000e+00 -1.036e-03 -5.927e-15
3.777e+00 1.322e+00 0.000e+00 -1.034e-03 2.017e-14
3.966e+00 1.322e+00 0.000e+00 -1.032e-03 -5.841e-15
4.155e+00 1.322e+00 0.000e+00 -1.031e-03 -2.108e-14
4.344e+00 1.322e+00 0.000e+00 -1.030e-03 -1.852e-14
4.533e+00 1.322e+00 0.000e+00 -1.029e-03 1.809e-14
0.000e+00 1.511e+00 0.000e+00 -1.029e-03 -1.640e-14
1.889e-01 1.511e+00 0.000e+00 -1.029e-03 -1.372e-14
3.777e-01 1.511e+00 0.000e+00 -1.030e-03 -2.266e-14
5.666e-01 1.511e+00 0.000e+00 -1.031e-03 -2.357e-14
7.555e-01 1.511e+00 0.000e+00 -1.032e-03 -1.701e-14
9.443e-01 1.511e+00 0.000e+00 -1.034e-03 -7.624e-15
1.133e+00 1.511e+00 0.000e+00 -1.036e-03 8.605e-15
1.322e+00 1.511e+00 0.000e+00 -1.039e-03 -1.772e-14
1.511e+00 1.511e+00 0.000e+00 -1.041e-03 -5.495e-15
1.700e+00 1.511e+00 0.000e+00 -1.043e-03 1.069e-14
1.889e+00 1.511e+00 0.000e+00 -1.045e-03 1.506e-14
2.078e+00 1.511e+00 0.000e+00 -1.046e-03 1.607e-14
2.266e+00 1.511e+00 0.000e+00 -1.047e-03 -4.383e-15
2.455e+00 1.511e+00 0.000e+00 -1.047e-03 2.998e-16
2.644e+00 1.511e+00 0.000e+00 -1.046e-03 4.818e-15
2.833e+00 1.511e+00 0.000e+00 -1.045e-03 -3.521e-15
3.022e+00 1.511e+00 0.000e+00 -1.043e-03 -2.061e-15
3.211e+00 1.511e+00 0.000e+00 -1.041e-03 -5.301e-16
3.400e+00 1.511e+00 0.000e+00 -1.039e-03 -1.528e-14
3.589e+00 1.511e+00 0.000e+00 -1.036e-03 -5.927e-15
3.777e+00 1.511e+00 0.000e+00 -1.034e-03 2.017e-14
3.966e+00 1.511e+00 0.000e+00 -1.032e-03 -5.841e-15
4.155e+00 1.511e+00 0.000e+00 -1.031e-03 -2.108e-14
4.344e+00 1.511e+00 0.000e+00 -1.030e-03 -1.852e-14
4.533e+00 1.511e+00 0.000e+00 -1.029e-03 1.809e-14
0.000e+00 1.700e+00 0.000e+00 -1.029e-03 -1.640e-14
1.889e-01 1.700e+00 0.000e+00 -1.029e-03 -1.372e-14
3.777e-01 1.700e+00 0.000e+00 -1.030e-03 -2.266e-14
5.666e-01 1.700e+00 0.000e+00 -1.031e-03 -2.357e-14
7.555e-01 1.700e+00 0.000e+00 -1.032e-03 -1.701e-14
9.443e-01 1.700e+00 0.000e+00 -1.034e-03 -7.624e-15
1.133e+00 1.700e+00 0.000e+00 -1.036e-03 8.605e-15
1.322e+00 1.700e+00 0.000e+00 -1.039e-03 -1.772e-14
1.511e+00 1.700e+00 0.000e+00 -1.041e-03 -5.495e-15
1.700e+00 1.700e+00 0.000e+00 -1.043e-03 1.069e-14
1.889e+00 1.700e+00 0.000e+00 -1.045e-03 1.506e-14
2.078e+00 1.700e+00 0.000e+00 -1.046e-03 1.607e-14
2.266e+00 1.700e+00 0.000e+00 -1.047e-03 -4.383e-15
2.455e+00 1.700e+00 0.000e+00 -1.047e-03 2.998e-16
2.644e+00 1.700e+00 0.000e+00 -1.046e-03 4.818e-15
2.833e+00 1.700e+00 0.000e+00 -1.045e-03 -3.521e-15
3.022e+00 1.700e+00 0.000e+00 -1.043e-03 -2.061e-15
3.211e+00 1.700e+00 0.000e+00 -1.041e-03 -5.301e-16
3.400e+00 1.700e+00 0.000e+00 -1.039e-03 -1.528e-14
3.589e+00 1.700e+00 0.000e+00 -1.036e-03 -5.927e-15
3.777e+00 1.700e+00 0.000e+00 -1.034e-03 2.017e-14
3.966e+00 1.700e+00 0.000e+00 -1.032e-03 -5.841e-15
4.155e+00 1.700e+00 0.000e+00 -1.031e-03 -2.108e-14
4.344e+00 1.700e+00 0.000e+00 -1.030e-03 -1.852e-14
4.533e+00 1.700e+00 0.000e+00 -1.029e-03 1.809e-14
0.000e+00 1.889e+00 0.000e+00 -1.029e-03 -1.640e-14
1.889e-01 1.889e+00 0.000e+00 -1.029e-03 -1.372e-14
3.777e-01 1.889e+00 0.000e+00 -1.030e-03 -2.266e-14
5.666e-01 1.889e+00 0.000e+00 -1.031e-03 -2.357e-14
7.555e-01 1.889e+00 0.000e+00 -1.032e-03 -1.701e-14
9.443e-01 1.889e+00 0.000e+00 -1.034e-03 -7.624e-15
1.133e+00 1.889e+00 0.000e+00 -1.036e-03 8.605e-15
1.322e+00 1.889e+00 0.000e+00 -1.039e-03 -1.772e-14
1.511e+00 1.889e+00 0.000e+00 -1.041e-03 -5.495e-15
1.700e+00 1.889e+00 0.000e+00 -1.043e-03 1.069e-14
1.889e+00 1.889e+00 0.000e+00 -1.045e-03 1.506e-14
2.078e+00 1.889e+00 0.000e+00 -1.046e-03 1.607e-14
2.266e+00 1.889e+00 0.000e+00 -1.047e-03 -4.383e-15
2.455e+00 1.889e+00 0.000e+00 -1.047e-03 2.998e-16
2.644e+00 1.889e+00 0.000e+00 -1.046e-03 4.818e-15
2.833e+00 1.889e+00 0.000e+00 -1.045e-03 -3.521e-15
3.022e+00 1.889e+00 0.000e+00 -1.043e-03 -2.061e-15
3.211e+00 1.889e+00 0.000e+00 -1.041e-03 -5.301e-16
3.400e+00 1.889e+00 0.000e+00 -1.039e-03 -1.528e-14
3.589e+00 1.889e+00 0.000e+00 -1.036e-03 -5.927e-15
3.777e+00 1.889e+00 0.000e+00 -1.034e-03 2.017e-14
3.966e+00 1.889e+00 0.000e+00 -1.032e-03 -5.841e-15
4.155e+00 1.889e+00 0.000e+00 -1.031e-03 -2.108e-14
4.344e+00 1.889e+00 0.000e+00 -1.030e-03 -1.852e-14
4.533e+00 1.889e+00 0.000e+00 -1.029e-03 1.809e-14
0.000e+00 2.078e+00 0.000e+00 -1.029e-03 -1.640e-14
1.889e-01 2.078e+00 0.000e+00 -1.029e-03 -1.372e-14
3.777e-01 2.078e+00 0.000e+00 -1.030e-03 -2.266e-14
5.666e-01 2.078e+00 0.000e+00 -1.031e-03 -2.357e-14
7.555e-01 2.078e+00 0.000e+00 -1.032e-03 -1.701e-14
9.443e-01 2.078e+00 0.000e+00 -1.034e-03 -7.624e-15
1.133e+00 2.078e+00 0.000e+00 -1.036e-03 8.605e-15
1.322e+00 2.078e+00 0.000e+00 -1.039e-03 -1.772e-14
1.511e+00 2.078e+00 0.000e+00 -1.041e-03 -5.495e-15
1.700e+00 2.078e+00 0.000e+00 -1.043e-03 1.069e-14
1.889e+00 2.078e+00 0.000e+00 -1.045e-03 1.506e-14
2.078e+00 2.078e+00 0.000e+00 -1.046e-03 1.607e-14
2.266e+00 2.078e+00 0.000e+00 -1.047e-03 -4.383e-15
2.455e+00 2.078e+00 0.000e+00 -1.047e-03 2.998e-16
2.644e+00 2.078e+00 0.000e+00 -1.046e-03 4.818e-15
2.833e+00 2.078e+00 0.000e+00 -1.045e-03 -3.521e-15
3.022e+00 2.078e+00 0.000e+00 -1.043e-03 -2.061e-15
3.211e+00 2.078e+00 0.000e+00 -1.041e-03 -5.301e-16
3.400e+00 2.078e+00 0.000e+00 -1.039e-03 -1.528e-14
3.589e+00 2.078e+00 0.000e+00 -1.036e-03 -5.927e-15
3.777e+00 2.078e+00 0.000e+00 -1.034e-03 2.017e-14
3.966e+00 2.078e+00 0.000e+00 -1.032e-03 -5.841e-15
4.155e+00 2.078e+00 0.000e+00 -1.031e-03 -2.108e-14
4.344e+00 2.078e+00 0.000e+00 -1.030e-03 -1.852e-14
4.533e+00 2.078e+00 0.000e+00 -1.029e-03 1.809e-14
0.000e+00 2.266e+00 0.000e+00 -1.029e-03 -1.640e-14
1.889e-01 2.266e+00 0.000e+00 -1.029e-03 -1.372e-14
3.777e-01 2.266e+00 0.000e+00 -1.030e-03 -2.266e-14
5.666e-01 2.266e+00 0.000e+00 -1.031e-03 -2.357e-14
7.555e-01 2.266e+00 0.000e+00 -1.032e-03 -1.701e-14
9.443e-01 2.266e+00 0.000e+00 -1.034e-03 -7.624e-15
1.133e+00 2.266e+00 0.000e+00 -1.036e-03 8.605e-15
1.322e+00 2.266e+00 0.000e+00 -1.039e-03 -1.772e-14
1.511e+00 2.266e+00 0.000e+00 -1.041e-03 -5.495e-15
1.700e+00 2.266e+00 0.000e+00 -1.043e-03 1.069e-14
1.889e+00 2.266e+00 0.000e+00 -1.045e-03 1.506e-14
2.078e+00 2.266e+00 0.000e+00 -1.046e-03 1.607e-14
2.266e+00 2.266e+00 0.000e+00 -1.047e-03 -4.383e-15
2.455e+00 2.266e+00 0.000e+00 -1.047e-03 2.998e-16
2.644e+00 2.266e+00 0.000e+00 -1.046e-03 4.818e-15
2.833e+00 2.266e+00 0.000e+00 -1.045e-03 -3.521e-15
3.022e+00 2.266e+00 0.000e+00 -1.043e-03 -2.061e-15
3.211e+00 2.266e+00 0.000e+00 -1.041e-03 -5.301e-16
3.400e+00 2.266e+00 0.000e+00 -1.039e-03 -1.528e-14
3.589e+00 2.266e+00 0.000e+00 -1.036e-03 -5.927e-15
3.777e+00 2.266e+00 0.000e+00 -1.034e-03 2.017e-14
3.966e+00 2.266e+00 0.000e+00 -1.032e-03 -5.841e-15
4.155e+00 2.266e+00 0.000e+00 -1.031e-03 -2.108e-14
4.344e+00 2.266e+00 0.000e+00 -1.030e-03 -1.852e-14
4.533e+00 2.266e+00 0.000e+00 -1.029e-03 1.809e-14
0.000e+00 2.455e+00 0.000e+00 -1.029e-03 -1.640e-14
1.889e-01 2.455e+00 0.000e+00 -1.029e-03 -1.372e-14
3.777e-01 2.455e+00 0.000e+00 -1.030e-03 -2.266e-14
5.666e-01 2.455e+00 0.000e+00 -1.031e-03 -2.357e-14
7.555e-01 2.455e+00 0.000e+00 -1.032e-03 -1.701e-14
9.443e-01 2.455e+00 0.000e+00 -1.034e-03 -7.624e-15
1.133e+00 2.455e+00 0.000e+00 -1.036e-03 8.605e-15
1.322e+00 2.455e+00 0.000e+00 -1.039e-03 -1.772e-14
1.511e+00 2.455e+00 0.000e+00 -1.041e-03 -5.495e-15
1.700e+00 2.455e+00 0.000e+00 -1.043e-03 1.069e-14
1.889e+00 2.455e+00 0.000e+00 -1.045e-03 1.506e-14
2.078e+00 2.455e+00 0.000e+00 -1.046e-03 1.607e-14
2.266e+00 2.455e+00 0.000e+00 -1.047e-03 -4.383e-15
2.455e+00 2.455e+00 0.000e+00 -1.047e-03 2.998e-16
2.644e+00 2.455e+00 0.000e+00 -1.046e-03 4.818e-15
2.833e+00 2.455e+00 0.000e+00 -1.045e-03 -3.521e-15
3.022e+00 2.455e+00 0.000e+00 -1.043e-03 -2.061e-15
3.211e+00 2.455e+00 0.000e+00 -1.041e-03 -5.301e-16
3.400e+00 2.455e+00 0.000e+00 -1.039e-03 -1.528e-14
3.589e+00 2.455e+00 0.000e+00 -1.036e-03 -5.927e-15
3.777e+00 2.455e+00 0.000e+00 -1.034e-03 2.017e-14
3.966e+00 2.455e+00 0.000e+00 -1.032e-03 -5.841e-15
4.155e+00 2.455e+00 0.000e+00 -1.031e-03 -2.108e-14
4.344e+00 2.455e+00 0.000e+00 -1.030e-03 -1.852e-14
4.533e+00 2.455e+00 0.000e+00 -1.029e-03 1.809e-14
0.000e+00 2.644e+00 0.000e+00 -1.029e-03 -1.640e-14
1.889e-01 2.644e+00 0.000e+00 -1.029e-03 -1.372e-14
3.777e-01 2.644e+00 0.000e+00 -1.030e-03 -2.266e-14
5.666e-01 2.644e+00 0.000e+00 -1.031e-03 -2.357e-14
7.555e-01 2.644e+00 0.000e+00 -1.032e-03 -1.701e-14
9.443e-01 2.644e+00 0.000e+00 -1.034e-03 -7.624e-15
1.133e+00 2.644e+00 0.000e+00 -1.036e-03 8.605e-15
1.322e+00 2.644e+00 0.000e+00 -1.039e-03 -1.772e-14
1.511e+00 2.644e+00 0.000e+00 -1.041e-03 -5.495e-15
1.700e+00 2.644e+00 0.000e+00 -1.043e-03 1.069e-14
1.889e+00 2.644e+00 0.000e+00 -1.045e-03 1.506e-14
2.078e+00 2.644e+00 0.000e+00 -1.046e-03 1.607e-14
2.266e+00 2.644e+00 0.000e+00 -1.047e-03 -4.383e-15
2.455e+00 2.644e+00 0.000e+00 -1.047e-03 2.998e-16
2.644e+00 2.644e+00 0.000e+00 -1.046e-03 4.818e-15
2.833e+00 2.644e+00 0.000e+00 -1.045e-03 -3.521e-15
3.022e+00 2.644e+00 0.000e+00 -1.043e-03 -2.061e-15
3.211e+00 2.644e+00 0.000e+00 -1.041e-03 -5.301e-16
3.400e+00 2.644e+00 0.000e+00 -1.039e-03 -1.528e-14
3.589e+00 2.644e+00 0.000e+00 -1.036e-03 -5.927e-15
3.777e+00 2.644e+00 0.000e+00 -1.034e-03 2.017e-14
3.966e+00 2.644e+00 0.000e+00 -1.032e-03 -5.841e-15
4.155e+00 2.644e+00 0.000e+00 -1.031e-03 -2.108e-14
4.344e+00 2.644e+00 0.000e+00 -1.030e-03 -1.852e-14
4.533e+00 2.644e+00 0.000e+00 -1.029e-03 1.809e-14
0.000e+00 2.833e+00 0.000e+00 -1.029e-03 -1.640e-14
1.889e-01 2.833e+00 0.000e+00 -1.029e-03 -1.372e-14
3.777e-01 2.833e+00 0.000e+00 -1.030e-03 -2.266e-14
5.666e-01 2.833e+00 0.000e+00 -1.031e-03 -2.357e-14
7.555e-01 2.833e+00 0.000e+00 -1.032e-03 -1.701e-14
9.443e-01 2.833e+00 0.000e+00 -1.034e-03 -7.624e-15
1.133e+00 2.833e+00 0.000e+00 -1.036e-03 8.605e-15
1.322e+00 2.833e+00 0.000e+00 -1.039e-03 -1.772e-14
1.511e+00 2.833e+00 0.000e+00 -1.041e-03 -5.495e-15
1.700e+00 2.833e+00 0.000e+00 -1.043e-03 1.069e-14
1.889e+00 2.833e+00 0.000e+00 -1.045e-03 1.506e-14
2.078e+00 2.833e+00 0.000e+00 -1.046e-03 1.607e-14
2.266e+00 2.833e+00 0.000e+00 -1.047e-03 -4.383e-15
2.455e+00 2.833e+00 0.000e+00 -1.047e-03 2.998e-16
2.644e+00 2.833e+00 0.000e+00 -1.046e-03 4.818e-15
2.833e+00 2.833e+00 0.000e+00 -1.045e-03 -3.521e-15
3.022e+00 2.833e+00 0.000e+00 -1.043e-03 -2.061e-15
3.211e+00 2.833e+00 0.000e+00 -1.041e-03 -5.301e-16
3.400e+00 2.833e+00 0.000e+00 -1.039e-03 -1.528e-14
3.589e+00 2.833e+00 0.000e+00 -1.036e-03 -5.927e-15
3.777e+00 2.833e+00 0.000e+00 -1.034e-03 2.017e-14
3.966e+00 2.833e+00 0.000e+00 -1.032e-03 -5.841e-15
4.155e+00 2.833e+00 0.000e+00 -1.031e-03 -2.108e-14
4.344e+00 2.833e+00 0.000e+00 -1.030e-03 -1.852e-14
4.533e+00 2.833e+00 0.000e+00 -1.029e-03 1.809e-14
0.000e+00 3.022e+00 0.000e+00 -1.029e-03 -1.640e-14
1.889e-01 3.022e+00 0.000e+00 -1.029e-03 -1.372e-14
3.777e-01 3.022e+00 0.000e+00 -1.030e-03 -2.266e-14
5.666e-01 3.022e+00 0.000e+00 -1.031e-03 -2.357e-14
7.555e-01 3.022e+00 0.000e+00 -1.032e-03 -1.701e-14
9.443e-01 3.022e+00 0.000e+00 -1.034e-03 -7.624e-15
1.133e+00 3.022e+00 0.000e+00 -1.036e-03 8.605e-15
1.322e+00 3.022e+00 0.000e+00 -1.039e-03 -1.772e-14
1.511e+00 3.022e+00 0.000e+00 -1.041e-03 -5.495e-15
1.700e+00 3.022e+00 0.000e+00 -1.043e-03 1.069e-14
1.889e+00 3.022e+00 0.000e+00 -1.045e-03 1.506e-14
2.078e+00 3.022e+00 0.000e+00 -1.046e-03 1.607e-14
2.266e+00 3.022e+00 0.000e+00 -1.047e-03 -4.383e-15
2.455e+00 3.022e+00 0.000e+00 -1.047e-03 2.998e-16
2.644e+00 3.022e+00 0.000e+00 -1.046e-03 4.818e-15
2.833e+00 3.022e+00 0.000e+00 -1.045e-03 -3.521e-15
3.022e+00 3.022e+00 0.000e+00 -1.043e-03 -2.061e-15
3.211e+00 3.022e+00 0.000e+00 -1.041e-03 -5.301e-16
3.400e+00 3.022e+00 0.000e+00 -1.039e-03 -1.528e-14
3.589e+00 3.022e+00 0.000e+00 -1.036e-03 -5.927e-15
3.777e+00 3.022e+00 0.000e+00 -1.034e-03 2.017e-14
3.966e+00 3.022e+00 0.000e+00 -1.032e-03 -5.841e-15
4.155e+00 3.022e+00 0.000e+00 -1.031e-03 -2.108e-14
4.344e+00 3.022e+00 0.000e+00 -1.030e-03 -1.852e-14
4.533e+00 3.022e+00 0.000e+00 -1.029e-03 1.809e-14
0.000e+00 3.211e+00 0.000e+00 -1.029e-03 -1.640e-14
1.889e-01 3.211e+00 0.000e+00 -1.029e-03 -1.372e-14
3.777e-01 3.211e+00 0.000e+00 -1.030e-03 -2.266e-14
5.666e-01 3.211e+00 0.000e+00 -1.031e-03 -2.357e-14
7.555e-01 3.211e+00 0.000e+00 -1.032e-03 -1.701e-14
9.443e-01 3.211e+00 0.000e+00 -1.034e-03 -7.624e-15
1.133e+00 3.211e+00 0.000e+00 -1.036e-03 8.605e-15
1.322e+00 3.211e+00 0.000e+00 -1.039e-03 -1.772e-14
1.511e+00 3.211e+00 0.000e+00 -1.041e-03 -5.495e-15
1.700e+00 3.211e+00 0.000e+00 -1.043e-03 1.069e-14
1.889e+00 3.211e+00 0.000e+00 -1.045e-03 1.506e-14
2.078e+00 3.211e+00 0.000e+00 -1.046e-03 1.607e-14
2.266e+00 3.211e+00 0.000e+00 -1.047e-03 -4.383e-15
2.455e+00 3.211e+00 0.000e+00 -1.047e-03 2.998e-16
2.644e+00 3.211e+00 0.000e+00 -1.046e-03 4.818e-15
2.833e+00 3.211e+00 0.000e+00 -1.045e-03 -3.521e-15
3.022e+00 3.211e+00 0.000e+00 -1.043e-03 -2.061e-15
3.211e+00 3.211e+00 0.000e+00 -1.041e-03 -5.301e-16
3.400e+00 3.211e+00 0.000e+00 -1.039e-03 -1.528e-14
3.589e+00 3.211e+00 0.000e+00 -1.036e-03 -5.927e-15
3.777e+00 3.211e+00 0.000e+00 -1.034e-03 2.017e-14
3.966e+00 3.211e+00 0.000e+00 -1.032e-03 -5.841e-15
4.155e+00 3.211e+00 0.000e+00 -1.031e-03 -2.108e-14
4.344e+00 3.211e+00 0.000e+00 -1.030e-03 -1.852e-14
4.533e+00 3.211e+00 0.000e+00 -1.029e-03 1.809e-14
0.000e+00 3.400e+00 0.000e+00 -1.029e-03 -1.640e-14
1.889e-01 3.400e+00 0.000e+00 -1.029e-03 -1.372e-14
3.777e-01 3.400e+00 0.000e+00 -1.030e-03 -2.266e-14
5.666e-01 3.400e+00 0.000e+00 -1.031e-03 -2.357e-14
7.555e-01 3.400e+00 0.000e+00 -1.032e-03 -1.701e-14
9.443e-01 3.400e+00 0.000e+00 -1.034e-03 -7.624e-15
1.133e+00 3.400e+00 0.000e+00 -1.036e-03 8.605e-15
1.322e+00 3.400e+00 0.000e+00 -1.039e-03 -1.772e-14
1.511e+00 3.400e+00 0.000e+00 -1.041e-03 -5.495e-15
1.700e+00 3.400e+00 0.000e+00 -1.043e-03 1.069e-14
1.889e+00 3.400e+00 0.000e+00 -1.045e-03 1.506e-14
2.078e+00 3.400e+00 0.000e+00 -1.046e-03 1.607e-14
2.266e+00 3.400e+00 0.000e+00 -1.047e-03 -4.383e-15
2.455e+00 3.400e+00 0.000e+00 -1.047e-03 2.998e-16
2.644e+00 3.400e+00 0.000e+00 -1.046e-03 4.818e-15
2.833e+00 3.400e+00 0.000e+00 -1.045e-03 -3.521e-15
3.022e+00 3.400e+00 0.000e+00 -1.043e-03 -2.061e-15
3.211e+00 3.400e+00 0.000e+00 -1.041e-03 -5.301e-16
3.400e+00 3.400e+00 0.000e+00 -1.039e-03 -1.528e-14
3.589e+00 3.400e+00 0.000e+00 -1.036e-03 -5.927e-15
3.777e+00 3.400e+00 0.000e+00 -1.034e-03 2.017e-14
3.966e+00 3.400e+00 0.000e+00 -1.032e-03 -5.841e-15
4.155e+00 3.400e+00 0.000e+00 -1.031e-03 -2.108e-14
4.344e+00 3.400e+00 0.000e+00 -1.030e-03 -1.852e-14
4.533e+00 3.400e+00 0.000e+00 -1.029e-03 1.809e-14
0.000e+00 3.589e+00 0.000e+00 -1.029e-03 -1.640e-14
1.889e-01 3.589e+00 0.000e+00 -1.029e-03 -1.372e-14
3.777e-01 3.589e+00 0.000e+00 -1.030e-03 -2.266e-14
5.666e-01 3.589e+00 0.000e+00 -1.031e-03 -2.357e-14
7.555e-01 3.589e+00 0.000e+00 -1.032e-03 -1.701e-14
9.443e-01 3.589e+00 0.000e+00 -1.034e-03 -7.624e-15
1.133e+00 3.589e+00 0.000e+00 -1.036e-03 8.605e-15
1.322e+00 3.589e+00 0.000e+00 -1.039e-03 -1.772e-14
1.511e+00 3.589e+00 0.000e+00 -1.041e-03 -5.495e-15
1.700e+00 3.589e+00 0.000e+00 -1.043e-03 1.069e-14
1.889e+00 3.589e+00 0.000e+00 -1.045e-03 1.506e-14
2.078e+00 3.589e+00 0.000e+00 -1.046e-03 1.607e-14
2.266e+00 3.589e+00 0.000e+00 -1.047e-03 -4.383e-15
2.455e+00 3.589e+00 0.000e+00 -1.047e-03 2.998e-16
2.644e+00 3.589e+00 0.000e+00 -1.046e-03 4.818e-15
2.833e+00 3.589e+00 0.000e+00 -1.045e-03 -3.521e-15
3.022e+00 3.589e+00 0.000e+00 -1.043e-03 -2.061e-15
3.211e+00 3.589e+00 0.000e+00 -1.041e-03 -5.301e-16
3.400e+00 3.589e+00 0.000e+00 -1.039e-03 -1.528e-14
3.589e+00 3.589e+00 0.000e+00 -1.036e-03 -5.927e-15
3.777e+00 3.589e+00 0.000e+00 -1.034e-03 2.017e-14
3.966e+00 3.589e+00 0.000e+00 -1.032e-03 -5.841e-15
4.155e+00 3.589e+00 0.000e+00 -1.031e-03 -2.108e-14
4.344e+00 3.589e+00 0.000e+00 -1.030e-03 -1.852e-14
4.533e+00 3.589e+00 0.000e+00 -1.029e-03 1.809e-14
0.000e+00 3.777e+00 0.000e+00 -1.029e-03 -1.640e-14
1.889e-01 3.777e+00 0.000e+00 -1.029e-03 -1.372e-14
3.777e-01 3.777e+00 0.000e+00 -1.030e-03 -2.266e-14
5.666e-01 3.777e+00 0.000e+00 -1.031e-03 -2.357e-14
7.555e-01 3.777e+00 0.000e+00 -1.032e-03 -1.701e-14
9.443e-01 3.777e+00 0.000e+00 -1.034e-03 -7.624e-15
1.133e+00 3.777e+00 0.000e+00 -1.036e-03 8.605e-15
1.322e+00 3.777e+00 0.000e+00 -1.039e-03 -1.772e-14
1.511e+00 3.777e+00 0.000e+00 -1.041e-03 -5.495e-15
1.700e+00 3.777e+00 0.000e+00 -1.043e-03 1.069e-14
1.889e+00 3.777e+00 0.000e+00 -1.045e-03 1.506e-14
2.078e+00 3.777e+00 0.000e+00 -1.046e-03 1.607e-14
2.266e+00 3.777e+00 0.000e+00 -1.047e-03 -4.383e-15
2.455e+00 3.777e+00 0.000e+00 -1.047e-03 2.998e-16
2.644e+00 3.777e+00 0.000e+00 -1.046e-03 4.818e-15
2.833e+00 3.777e+00 0.000e+00 -1.045e-03 -3.521e-15
3.022e+00 3.777e+00 0.000e+00 -1.043e-03 -2.061e-15
3.211e+00 3.777e+00 0.000e+00 -1.041e-03 -5.301e-16
3.400e+00 3.777e+00 0.000e+00 -1.039e-03 -1.528e-14
3.589e+00 3.777e+00 0.000e+00 -1.036e-03 -5.927e-15
3.777e+00 3.777e+00 0.000e+00 -1.034e-03 2.017e-14
3.966e+00 3.777e+00 0.000e+00 -1.032e-03 -5.841e-15
4.155e+00 3.777e+00 0.000e+00 -1.031e-03 -2.108e-14
4.344e+00 3.777e+00 0.000e+00 -1.030e-03 -1.852e-14
4.533e+00 3.777e+00 0.000e+00 -1.029e-03 1.809e-14
0.000e+00 3.966e+00 0.000e+00 -1.029e-03 -1.640e-14
1.889e-01 3.966e+00 0.000e+00 -1.029e-03 -1.372e-14
3.777e-01 3.966e+00 0.000e+00 -1.030e-03 -2.266e-14
5.666e-01 3.966e+00 0.000e+00 -1.031e-03 -2.357e-14
7.555e-01 3.966e+00 0.000e+00 -1.032e-03 -1.701e-14
9.443e-01 3.966e+00 0.000e+00 -1.034e-03 -7.624e-15
1.133e+00 3.966e+00 0.000e+00 -1.036e-03 8.605e-15
1.322e+00 3.966e+00 0.000e+00 -1.039e-03 -1.772e-14
1.511e+00 3.966e+00 0.000e+00 -1.041e-03 -5.495e-15
1.700e+00 3.966e+00 0.000e+00 -1.043e-03 1.069e-14
1.889e+00 3.966e+00 0.000e+00 -1.045e-03 1.506e-14
2.078e+00 3.966e+00 0.000e+00 -1.046e-03 1.607e-14
2.266e+00 3.966e+00 0.000e+00 -1.047e-03 -4.383e-15
2.455e+00 3.966e+00 0.000e+00 -1.047e-03 2.998e-16
2.644e+00 3.966e+00 0.000e+00 -1.046e-03 4.818e-15
2.833e+00 3.966e+00 0.000e+00 -1.045e-03 -3.521e-15
3.022e+00 3.966e+00 0.000e+00 -1.043e-03 -2.061e-15
3.211e+00 3.966e+00 0.000e+00 -1.041e-03 -5.301e-16
3.400e+00 3.966e+00 0.000e+00 -1.039e-03 -1.528e-14
3.589e+00 3.966e+00 0.000e+00 -1.036e-03 -5.927e-15
3.777e+00 3.966e+00 0.000e+00 -1.034e-03 2.017e-14
3.966e+00 3.966e+00 0.000e+00 -1.032e-03 -5.841e-15
4.155e+00 3.966e+00 0.000e+00 -1.031e-03 -2.108e-14
4.344e+00 3.966e+00 0.000e+00 -1.030e-03 -1.852e-14
4.533e+00 3.966e+00 0.000e+00 -1.029e-03 1.809e-14
0.000e+00 4.155e+00 0.000e+00 -1.029e-03 -1.640e-14
1.889e-01 4.155e+00 0.000e+00 -1.029e-03 -1.372e-14
3.777e-01 4.155e+00 0.000e+00 -1.030e-03 -2.266e-14
5.666e-01 4.155e+00 0.000e+00 -1.031e-03 -2.357e-14
7.555e-01 4.155e+00 0.000e+00 -1.032e-03 -1.701e-14
9.443e-01 4.155e+00 0.000e+00 -1.034e-03 -7.624e-15
1.133e+00 4.155e+00 0.000e+00 -1.036e-03 8.605e-15
1.322e+00 4.155e+00 0.000e+00 -1.039e-03 -1.772e-14
1.511e+00 4.155e+00 0.000e+00 -1.041e-03 -5.495e-15
1.700e+00 4.155e+00 0.000e+00 -1.043e-03 1.069e-14
1.889e+00 4.155e+00 0.000e+00 -1.045e-03 1.506e-14
2.078e+00 4.155e+00 0.000e+00 -1.046e-03 1.607e-14
2.266e+00 4.155e+00 0.000e+00 -1.047e-03 -4.383e-15
2.455e+00 4.155e+00 0.000e+00 -1.047e-03 2.998e-16
2.644e+00 4.155e+00 0.000e+00 -1.046e-03 4.818e-15
2.833e+00 4.155e+00 0.000e+00 -1.045e-03 -3.521e-15
3.022e+00 4.155e+00 0.000e+00 -1.043e-03 -2.061e-15
3.211e+00 4.155e+00 0.000e+00 -1.041e-03 -5.301e-16
3.400e+00 4.155e+00 0.000e+00 -1.039e-03 -1.528e-14
3.589e+00 4.155e+00 0.000e+00 -1.036e-03 -5.927e-15
3.777e+00 4.155e+00 0.000e+00 -1.034e-03 2.017e-14
3.966e+00 4.155e+00 0.000e+00 -1.032e-03 -5.841e-15
4.155e+00 4.155e+00 0.000e+00 -1.031e-03 -2.108e-14
4.344e+00 4.155e+00 0.000e+00 -1.030e-03 -1.852e-14
4.533e+00 4.155e+00 0.000e+00 -1.029e-03 1.809e-14
0.000e+00 4.344e+00 0.000e+00 -1.029e-03 -1.640e-14
1.889e-01 4.344e+00 0.000e+00 -1.029e-03 -1.372e-14
3.777e-01 4.344e+00 0.000e+00 -1.030e-03 -2.266e-14