TITLE = "wbcp"
VARIABLES = "X", "Y", "Z", "Real", "Imaginary"
ZONE I=25, J=25, K=75, F=POINT
0.000e+00 0.000e+00 0.000e+00 -2.925e-15 -1.089e-03
1.889e-01 0.000e+00 0.000e+00 -1.048e-15 -1.089e-03
3.777e-01 0.000e+00 0.000e+00 3.754e-15 -1.088e-03
5.666e-01 0.000e+00 0.000e+00 1.332e-15 -1.087e-03
7.555e-01 0.000e+00 0.000e+00 5.170e-15 -1.086e-03
9.443e-01 0.000e+00 0.000e+00 8.479e-15 -1.084e-03
1.133e+00 0.000e+00 0.000e+00 7.714e-15 -1.081e-03
1.322e+00 0.000e+00 0.000e+00 1.194e-14 -1.079e-03
1.511e+00 0.000e+00 0.000e+00 6.156e-15 -1.077e-03
1.700e+00 0.000e+00 0.000e+00 4.737e-15 -1.075e-03
1.889e+00 0.000e+00 0.000e+00 1.558e-14 -1.073e-03
2.078e+00 0.000e+00 0.000e+00 3.591e-15 -1.072e-03
2.266e+00 0.000e+00 0.000e+00 6.830e-15 -1.071e-03
2.455e+00 0.000e+00 0.000e+00 -2.809e-15 -1.071e-03
2.644e+00 0.000e+00 0.000e+00 -5.985e-15 -1.072e-03
2.833e+00 0.000e+00 0.000e+00 -6.102e-15 -1.073e-03
3.022e+00 0.000e+00 0.000e+00 -1.239e-14 -1.075e-03
3.211e+00 0.000e+00 0.000e+00 -4.921e-15 -1.077e-03
3.400e+00 0.000e+00 0.000e+00 -8.480e-15 -1.079e-03
3.589e+00 0.000e+00 0.000e+00 -1.339e-14 -1.081e-03
3.777e+00 0.000e+00 0.000e+00 -1.357e-14 -1.084e-03
3.966e+00 0.000e+00 0.000e+00 -7.748e-15 -1.086e-03
4.155e+00 0.000e+00 0.000e+00 -7.032e-15 -1.087e-03
4.344e+00 0.000e+00 0.000e+00 -5.799e-15 -1.088e-03
4.533e+00 0.000e+00 0.000e+00 -5.708e-15 -1.089e-03
0.000e+00 1.889e-01 0.000e+00 -2.925e-15 -1.089e-03
1.889e-01 1.889e-01 0.000e+00 -1.048e-15 -1.089e-03
3.777e-01 1.889e-01 0.000e+00 3.754e-15 -1.088e-03
5.666e-01 1.889e-01 0.000e+00 1.332e-15 -1.087e-03
7.555e-01 1.889e-01 0.000e+00 5.170e-15 -1.086e-03
9.443e-01 1.889e-01 0.000e+00 8.479e-15 -1.084e-03
1.133e+00 1.889e-01 0.000e+00 7.714e-15 -1.081e-03
1.322e+00 1.889e-01 0.000e+00 1.194e-14 -1.079e-03
1.511e+00 1.889e-01 0.000e+00 6.156e-15 -1.077e-03
1.700e+00 1.889e-01 0.000e+00 4.737e-15 -1.075e-03
1.889e+00 1.889e-01 0.000e+00 1.558e-14 -1.073e-03
2.078e+00 1.889e-01 0.000e+00 3.591e-15 -1.072e-03
2.266e+00 1.889e-01 0.000e+00 6.830e-15 -1.071e-03
2.455e+00 1.889e-01 0.000e+00 -2.809e-15 -1.071e-03
2.644e+00 1.889e-01 0.000e+00 -5.985e-15 -1.072e-03
2.833e+00 1.889e-01 0.000e+00 -6.102e-15 -1.073e-03
3.022e+00 1.889e-01 0.000e+00 -1.239e-14 -1.075e-03
3.211e+00 1.889e-01 0.000e+00 -4.921e-15 -1.077e-03
3.400e+00 1.889e-01 0.000e+00 -8.480e-15 -1.079e-03
3.589e+00 1.889e-01 0.000e+00 -1.339e-14 -1.081e-03
3.777e+00 1.889e-01 0.000e+00 -1.357e-14 -1.084e-03
3.966e+00 1.889e-01 0.000e+00 -7.748e-15 -1.086e-03
4.155e+00 1.889e-01 0.000e+00 -7.032e-15 -1.087e-03
4.344e+00 1.889e-01 0.000e+00 -5.799e-15 -1.088e-03
4.533e+00 1.889e-01 0.000e+00 -5.708e-15 -1.089e-03
0.000e+00 3.777e-01 0.000e+00 -2.925e-15 -1.089e-03
1.889e-01 3.777e-01 0.000e+00 -1.048e-15 -1.089e-03
3.777e-01 3.777e-01 0.000e+00 3.754e-15 -1.088e-03
5.666e-01 3.777e-01 0.000e+00 1.332e-15 -1.087e-03
7.555e-01 3.777e-01 0.000e+00 5.170e-15 -1.086e-03
9.443e-01 3.777e-01 0.000e+00 8.479e-15 -1.084e-03
1.133e+00 3.777e-01 0.000e+00 7.714e-15 -1.081e-03
1.322e+00 3.777e-01 0.000e+00 1.194e-14 -1.079e-03
1.511e+00 3.777e-01 0.000e+00 6.156e-15 -1.077e-03
1.700e+00 3.777e-01 0.000e+00 4.737e-15 -1.075e-03
1.889e+00 3.777e-01 0.000e+00 1.558e-14 -1.073e-03
2.078e+00 3.777e-01 0.000e+00 3.591e-15 -1.072e-03
2.266e+00 3.777e-01 0.000e+00 6.830e-15 -1.071e-03
2.455e+00 3.777e-01 0.000e+00 -2.809e-15 -1.071e-03
2.644e+00 3.777e-01 0.000e+00 -5.985e-15 -1.072e-03
2.833e+00 3.777e-01 0.000e+00 -6.102e-15 -1.073e-03
3.022e+00 3.777e-01 0.000e+00 -1.239e-14 -1.075e-03
3.211e+00 3.777e-01 0.000e+00 -4.921e-15 -1.077e-03
3.400e+00 3.777e-01 0.000e+00 -8.480e-15 -1.079e-03
3.589e+00 3.777e-01 0.000e+00 -1.339e-14 -1.081e-03
3.777e+00 3.777e-01 0.000e+00 -1.357e-14 -1.084e-03
3.966e+00 3.777e-01 0.000e+00 -7.748e-15 -1.086e-03
4.155e+00 3.777e-01 0.000e+00 -7.032e-15 -1.087e-03
4.344e+00 3.777e-01 0.000e+00 -5.799e-15 -1.088e-03
4.533e+00 3.777e-01 0.000e+00 -5.708e-15 -1.089e-03
0.000e+00 5.666e-01 0.000e+00 -2.925e-15 -1.089e-03
1.889e-01 5.666e-01 0.000e+00 -1.048e-15 -1.089e-03
3.777e-01 5.666e-01 0.000e+00 3.754e-15 -1.088e-03
5.666e-01 5.666e-01 0.000e+00 1.332e-15 -1.087e-03
7.555e-01 5.666e-01 0.000e+00 5.170e-15 -1.086e-03
9.443e-01 5.666e-01 0.000e+00 8.479e-15 -1.084e-03
1.133e+00 5.666e-01 0.000e+00 7.714e-15 -1.081e-03
1.322e+00 5.666e-01 0.000e+00 1.194e-14 -1.079e-03
1.511e+00 5.666e-01 0.000e+00 6.156e-15 -1.077e-03
1.700e+00 5.666e-01 0.000e+00 4.737e-15 -1.075e-03
1.889e+00 5.666e-01 0.000e+00 1.558e-14 -1.073e-03
2.078e+00 5.666e-01 0.000e+00 3.591e-15 -1.072e-03
2.266e+00 5.666e-01 0.000e+00 6.830e-15 -1.071e-03
2.455e+00 5.666e-01 0.000e+00 -2.809e-15 -1.071e-03
2.644e+00 5.666e-01 0.000e+00 -5.985e-15 -1.072e-03
2.833e+00 5.666e-01 0.000e+00 -6.102e-15 -1.073e-03
3.022e+00 5.666e-01 0.000e+00 -1.239e-14 -1.075e-03
3.211e+00 5.666e-01 0.000e+00 -4.921e-15 -1.077e-03
3.400e+00 5.666e-01 0.000e+00 -8.480e-15 -1.079e-03
3.589e+00 5.666e-01 0.000e+00 -1.339e-14 -1.081e-03
3.777e+00 5.666e-01 0.000e+00 -1.357e-14 -1.084e-03
3.966e+00 5.666e-01 0.000e+00 -7.748e-15 -1.086e-03
4.155e+00 5.666e-01 0.000e+00 -7.032e-15 -1.087e-03
4.344e+00 5.666e-01 0.000e+00 -5.799e-15 -1.088e-03
4.533e+00 5.666e-01 0.000e+00 -5.708e-15 -1.089e-03
0.000e+00 7.555e-01 0.000e+00 -2.925e-15 -1.089e-03
1.889e-01 7.555e-01 0.000e+00 -1.048e-15 -1.089e-03
3.777e-01 7.555e-01 0.000e+00 3.754e-15 -1.088e-03
5.666e-01 7.555e-01 0.000e+00 1.332e-15 -1.087e-03
7.555e-01 7.555e-01 0.000e+00 5.170e-15 -1.086e-03
9.443e-01 7.555e-01 0.000e+00 8.479e-15 -1.084e-03
1.133e+00 7.555e-01 0.000e+00 7.714e-15 -1.081e-03
1.322e+00 7.555e-01 0.000e+00 1.194e-14 -1.079e-03
1.511e+00 7.555e-01 0.000e+00 6.156e-15 -1.077e-03
1.700e+00 7.555e-01 0.000e+00 4.737e-15 -1.075e-03
1.889e+00 7.555e-01 0.000e+00 1.558e-14 -1.073e-03
2.078e+00 7.555e-01 0.000e+00 3.591e-15 -1.072e-03
2.266e+00 7.555e-01 0.000e+00 6.830e-15 -1.071e-03
2.455e+00 7.555e-01 0.000e+00 -2.809e-15 -1.071e-03
2.644e+00 7.555e-01 0.000e+00 -5.985e-15 -1.072e-03
2.833e+00 7.555e-01 0.000e+00 -6.102e-15 -1.073e-03
3.022e+00 7.555e-01 0.000e+00 -1.239e-14 -1.075e-03
3.211e+00 7.555e-01 0.000e+00 -4.921e-15 -1.077e-03
3.400e+00 7.555e-01 0.000e+00 -8.480e-15 -1.079e-03
3.589e+00 7.555e-01 0.000e+00 -1.339e-14 -1.081e-03
3.777e+00 7.555e-01 0.000e+00 -1.357e-14 -1.084e-03
3.966e+00 7.555e-01 0.000e+00 -7.748e-15 -1.086e-03
4.155e+00 7.555e-01 0.000e+00 -7.032e-15 -1.087e-03
4.344e+00 7.555e-01 0.000e+00 -5.799e-15 -1.088e-03
4.533e+00 7.555e-01 0.000e+00 -5.708e-15 -1.089e-03
0.000e+00 9.443e-01 0.000e+00 -2.925e-15 -1.089e-03
1.889e-01 9.443e-01 0.000e+00 -1.048e-15 -1.089e-03
3.777e-01 9.443e-01 0.000e+00 3.754e-15 -1.088e-03
5.666e-01 9.443e-01 0.000e+00 1.332e-15 -1.087e-03
7.555e-01 9.443e-01 0.000e+00 5.170e-15 -1.086e-03
9.443e-01 9.443e-01 0.000e+00 8.479e-15 -1.084e-03
1.133e+00 9.443e-01 0.000e+00 7.714e-15 -1.081e-03
1.322e+00 9.443e-01 0.000e+00 1.194e-14 -1.079e-03
1.511e+00 9.443e-01 0.000e+00 6.156e-15 -1.077e-03
1.700e+00 9.443e-01 0.000e+00 4.737e-15 -1.075e-03
1.889e+00 9.443e-01 0.000e+00 1.558e-14 -1.073e-03
2.078e+00 9.443e-01 0.000e+00 3.591e-15 -1.072e-03
2.266e+00 9.443e-01 0.000e+00 6.830e-15 -1.071e-03
2.455e+00 9.443e-01 0.000e+00 -2.809e-15 -1.071e-03
2.644e+00 9.443e-01 0.000e+00 -5.985e-15 -1.072e-03
2.833e+00 9.443e-01 0.000e+00 -6.102e-15 -1.073e-03
3.022e+00 9.443e-01 0.000e+00 -1.239e-14 -1.075e-03
3.211e+00 9.443e-01 0.000e+00 -4.921e-15 -1.077e-03
3.400e+00 9.443e-01 0.000e+00 -8.480e-15 -1.079e-03
3.589e+00 9.443e-01 0.000e+00 -1.339e-14 -1.081e-03
3.777e+00 9.443e-01 0.000e+00 -1.357e-14 -1.084e-03
3.966e+00 9.443e-01 0.000e+00 -7.748e-15 -1.086e-03
4.155e+00 9.443e-01 0.000e+00 -7.032e-15 -1.087e-03
4.344e+00 9.443e-01 0.000e+00 -5.799e-15 -1.088e-03
4.533e+00 9.443e-01 0.000e+00 -5.708e-15 -1.089e-03
0.000e+00 1.133e+00 0.000e+00 -2.925e-15 -1.089e-03
1.889e-01 1.133e+00 0.000e+00 -1.048e-15 -1.089e-03
3.777e-01 1.133e+00 0.000e+00 3.754e-15 -1.088e-03
5.666e-01 1.133e+00 0.000e+00 1.332e-15 -1.087e-03
7.555e-01 1.133e+00 0.000e+00 5.170e-15 -1.086e-03
9.443e-01 1.133e+00 0.000e+00 8.479e-15 -1.084e-03
1.133e+00 1.133e+00 0.000e+00 7.714e-15 -1.081e-03
1.322e+00 1.133e+00 0.000e+00 1.194e-14 -1.079e-03
1.511e+00 1.133e+00 0.000e+00 6.156e-15 -1.077e-03
1.700e+00 1.133e+00 0.000e+00 4.737e-15 -1.075e-03
1.889e+00 1.133e+00 0.000e+00 1.558e-14 -1.073e-03
2.078e+00 1.133e+00 0.000e+00 3.591e-15 -1.072e-03
2.266e+00 1.133e+00 0.000e+00 6.830e-15 -1.071e-03
2.455e+00 1.133e+00 0.000e+00 -2.809e-15 -1.071e-03
2.644e+00 1.133e+00 0.000e+00 -5.985e-15 -1.072e-03
2.833e+00 1.133e+00 0.000e+00 -6.102e-15 -1.073e-03
3.022e+00 1.133e+00 0.000e+00 -1.239e-14 -1.075e-03
3.211e+00 1.133e+00 0.000e+00 -4.921e-15 -1.077e-03
3.400e+00 1.133e+00 0.000e+00 -8.480e-15 -1.079e-03
3.589e+00 1.133e+00 0.000e+00 -1.339e-14 -1.081e-03
3.777e+00 1.133e+00 0.000e+00 -1.357e-14 -1.084e-03
3.966e+00 1.133e+00 0.000e+00 -7.748e-15 -1.086e-03
4.155e+00 1.133e+00 0.000e+00 -7.032e-15 -1.087e-03
4.344e+00 1.133e+00 0.000e+00 -5.799e-15 -1.088e-03
4.533e+00 1.133e+00 0.000e+00 -5.708e-15 -1.089e-03
0.000e+00 1.322e+00 0.000e+00 -2.925e-15 -1.089e-03
1.889e-01 1.322e+00 0.000e+00 -1.048e-15 -1.089e-03
3.777e-01 1.322e+00 0.000e+00 3.754e-15 -1.088e-03
5.666e-01 1.322e+00 0.000e+00 1.332e-15 -1.087e-03
7.555e-01 1.322e+00 0.000e+00 5.170e-15 -1.086e-03
9.443e-01 1.322e+00 0.000e+00 8.479e-15 -1.084e-03
1.133e+00 1.322e+00 0.000e+00 7.714e-15 -1.081e-03
1.322e+00 1.322e+00 0.000e+00 1.194e-14 -1.079e-03
1.511e+00 1.322e+00 0.000e+00 6.156e-15 -1.077e-03
1.700e+00 1.322e+00 0.000e+00 4.737e-15 -1.075e-03
1.889e+00 1.322e+00 0.000e+00 1.558e-14 -1.073e-03
2.078e+00 1.322e+00 0.000e+00 3.591e-15 -1.072e-03
2.266e+00 1.322e+00 0.000e+00 6.830e-15 -1.071e-03
2.455e+00 1.322e+00 0.000e+00 -2.809e-15 -1.071e-03
2.644e+00 1.322e+00 0.000e+00 -5.985e-15 -1.072e-03
2.833e+00 1.322e+00 0.000e+00 -6.102e-15 -1.073e-03
3.022e+00 1.322e+00 0.000e+00 -1.239e-14 -1.075e-03
3.211e+00 1.322e+00 0.000e+00 -4.921e-15 -1.077e-03
3.400e+00 1.322e+00 0.000e+00 -8.480e-15 -1.079e-03
3.589e+00 1.322e+00 0.000e+00 -1.339e-14 -1.081e-03
3.777e+00 1.322e+00 0.000e+00 -1.357e-14 -1.084e-03
3.966e+00 1.322e+00 0.000e+00 -7.748e-15 -1.086e-03
4.155e+00 1.322e+00 0.000e+00 -7.032e-15 -1.087e-03
4.344e+00 1.322e+00 0.000e+00 -5.799e-15 -1.088e-03
4.533e+00 1.322e+00 0.000e+00 -5.708e-15 -1.089e-03
0.000e+00 1.511e+00 0.000e+00 -2.925e-15 -1.089e-03
1.889e-01 1.511e+00 0.000e+00 -1.048e-15 -1.089e-03
3.777e-01 1.511e+00 0.000e+00 3.754e-15 -1.088e-03
5.666e-01 1.511e+00 0.000e+00 1.332e-15 -1.087e-03
7.555e-01 1.511e+00 0.000e+00 5.170e-15 -1.086e-03
9.443e-01 1.511e+00 0.000e+00 8.479e-15 -1.084e-03
1.133e+00 1.511e+00 0.000e+00 7.714e-15 -1.081e-03
1.322e+00 1.511e+00 0.000e+00 1.194e-14 -1.079e-03
1.511e+00 1.511e+00 0.000e+00 6.156e-15 -1.077e-03
1.700e+00 1.511e+00 0.000e+00 4.737e-15 -1.075e-03
1.889e+00 1.511e+00 0.000e+00 1.558e-14 -1.073e-03
2.078e+00 1.511e+00 0.000e+00 3.591e-15 -1.072e-03
2.266e+00 1.511e+00 0.000e+00 6.830e-15 -1.071e-03
2.455e+00 1.511e+00 0.000e+00 -2.809e-15 -1.071e-03
2.644e+00 1.511e+00 0.000e+00 -5.985e-15 -1.072e-03
2.833e+00 1.511e+00 0.000e+00 -6.102e-15 -1.073e-03
3.022e+00 1.511e+00 0.000e+00 -1.239e-14 -1.075e-03
3.211e+00 1.511e+00 0.000e+00 -4.921e-15 -1.077e-03
3.400e+00 1.511e+00 0.000e+00 -8.480e-15 -1.079e-03
3.589e+00 1.511e+00 0.000e+00 -1.339e-14 -1.081e-03
3.777e+00 1.511e+00 0.000e+00 -1.357e-14 -1.084e-03
3.966e+00 1.511e+00 0.000e+00 -7.748e-15 -1.086e-03
4.155e+00 1.511e+00 0.000e+00 -7.032e-15 -1.087e-03
4.344e+00 1.511e+00 0.000e+00 -5.799e-15 -1.088e-03
4.533e+00 1.511e+00 0.000e+00 -5.708e-15 -1.089e-03
0.000e+00 1.700e+00 0.000e+00 -2.925e-15 -1.089e-03
1.889e-01 1.700e+00 0.000e+00 -1.048e-15 -1.089e-03
3.777e-01 1.700e+00 0.000e+00 3.754e-15 -1.088e-03
5.666e-01 1.700e+00 0.000e+00 1.332e-15 -1.087e-03
7.555e-01 1.700e+00 0.000e+00 5.170e-15 -1.086e-03
9.443e-01 1.700e+00 0.000e+00 8.479e-15 -1.084e-03
1.133e+00 1.700e+00 0.000e+00 7.714e-15 -1.081e-03
1.322e+00 1.700e+00 0.000e+00 1.194e-14 -1.079e-03
1.511e+00 1.700e+00 0.000e+00 6.156e-15 -1.077e-03
1.700e+00 1.700e+00 0.000e+00 4.737e-15 -1.075e-03
1.889e+00 1.700e+00 0.000e+00 1.558e-14 -1.073e-03
2.078e+00 1.700e+00 0.000e+00 3.591e-15 -1.072e-03
2.266e+00 1.700e+00 0.000e+00 6.830e-15 -1.071e-03
2.455e+00 1.700e+00 0.000e+00 -2.809e-15 -1.071e-03
2.644e+00 1.700e+00 0.000e+00 -5.985e-15 -1.072e-03
2.833e+00 1.700e+00 0.000e+00 -6.102e-15 -1.073e-03
3.022e+00 1.700e+00 0.000e+00 -1.239e-14 -1.075e-03
3.211e+00 1.700e+00 0.000e+00 -4.921e-15 -1.077e-03
3.400e+00 1.700e+00 0.000e+00 -8.480e-15 -1.079e-03
3.589e+00 1.700e+00 0.000e+00 -1.339e-14 -1.081e-03
3.777e+00 1.700e+00 0.000e+00 -1.357e-14 -1.084e-03
3.966e+00 1.700e+00 0.000e+00 -7.748e-15 -1.086e-03
4.155e+00 1.700e+00 0.000e+00 -7.032e-15 -1.087e-03
4.344e+00 1.700e+00 0.000e+00 -5.799e-15 -1.088e-03
4.533e+00 1.700e+00 0.000e+00 -5.708e-15 -1.089e-03
0.000e+00 1.889e+00 0.000e+00 -2.925e-15 -1.089e-03
1.889e-01 1.889e+00 0.000e+00 -1.048e-15 -1.089e-03
3.777e-01 1.889e+00 0.000e+00 3.754e-15 -1.088e-03
5.666e-01 1.889e+00 0.000e+00 1.332e-15 -1.087e-03
7.555e-01 1.889e+00 0.000e+00 5.170e-15 -1.086e-03
9.443e-01 1.889e+00 0.000e+00 8.479e-15 -1.084e-03
1.133e+00 1.889e+00 0.000e+00 7.714e-15 -1.081e-03
1.322e+00 1.889e+00 0.000e+00 1.194e-14 -1.079e-03
1.511e+00 1.889e+00 0.000e+00 6.156e-15 -1.077e-03
1.700e+00 1.889e+00 0.000e+00 4.737e-15 -1.075e-03
1.889e+00 1.889e+00 0.000e+00 1.558e-14 -1.073e-03
2.078e+00 1.889e+00 0.000e+00 3.591e-15 -1.072e-03
2.266e+00 1.889e+00 0.000e+00 6.830e-15 -1.071e-03
2.455e+00 1.889e+00 0.000e+00 -2.809e-15 -1.071e-03
2.644e+00 1.889e+00 0.000e+00 -5.985e-15 -1.072e-03
2.833e+00 1.889e+00 0.000e+00 -6.102e-15 -1.073e-03
3.022e+00 1.889e+00 0.000e+00 -1.239e-14 -1.075e-03
3.211e+00 1.889e+00 0.000e+00 -4.921e-15 -1.077e-03
3.400e+00 1.889e+00 0.000e+00 -8.480e-15 -1.079e-03
3.589e+00 1.889e+00 0.000e+00 -1.339e-14 -1.081e-03
3.777e+00 1.889e+00 0.000e+00 -1.357e-14 -1.084e-03
3.966e+00 1.889e+00 0.000e+00 -7.748e-15 -1.086e-03
4.155e+00 1.889e+00 0.000e+00 -7.032e-15 -1.087e-03
4.344e+00 1.889e+00 0.000e+00 -5.799e-15 -1.088e-03
4.533e+00 1.889e+00 0.000e+00 -5.708e-15 -1.089e-03
0.000e+00 2.078e+00 0.000e+00 -2.925e-15 -1.089e-03
1.889e-01 2.078e+00 0.000e+00 -1.048e-15 -1.089e-03
3.777e-01 2.078e+00 0.000e+00 3.754e-15 -1.088e-03
5.666e-01 2.078e+00 0.000e+00 1.332e-15 -1.087e-03
7.555e-01 2.078e+00 0.000e+00 5.170e-15 -1.086e-03
9.443e-01 2.078e+00 0.000e+00 8.479e-15 -1.084e-03
1.133e+00 2.078e+00 0.000e+00 7.714e-15 -1.081e-03
1.322e+00 2.078e+00 0.000e+00 1.194e-14 -1.079e-03
1.511e+00 2.078e+00 0.000e+00 6.156e-15 -1.077e-03
1.700e+00 2.078e+00 0.000e+00 4.737e-15 -1.075e-03
1.889e+00 2.078e+00 0.000e+00 1.558e-14 -1.073e-03
2.078e+00 2.078e+00 0.000e+00 3.591e-15 -1.072e-03
2.266e+00 2.078e+00 0.000e+00 6.830e-15 -1.071e-03
2.455e+00 2.078e+00 0.000e+00 -2.809e-15 -1.071e-03
2.644e+00 2.078e+00 0.000e+00 -5.985e-15 -1.072e-03
2.833e+00 2.078e+00 0.000e+00 -6.102e-15 -1.073e-03
3.022e+00 2.078e+00 0.000e+00 -1.239e-14 -1.075e-03
3.211e+00 2.078e+00 0.000e+00 -4.921e-15 -1.077e-03
3.400e+00 2.078e+00 0.000e+00 -8.480e-15 -1.079e-03
3.589e+00 2.078e+00 0.000e+00 -1.339e-14 -1.081e-03
3.777e+00 2.078e+00 0.000e+00 -1.357e-14 -1.084e-03
3.966e+00 2.078e+00 0.000e+00 -7.748e-15 -1.086e-03
4.155e+00 2.078e+00 0.000e+00 -7.032e-15 -1.087e-03
4.344e+00 2.078e+00 0.000e+00 -5.799e-15 -1.088e-03
4.533e+00 2.078e+00 0.000e+00 -5.708e-15 -1.089e-03
0.000e+00 2.266e+00 0.000e+00 -2.925e-15 -1.089e-03
1.889e-01 2.266e+00 0.000e+00 -1.048e-15 -1.089e-03
3.777e-01 2.266e+00 0.000e+00 3.754e-15 -1.088e-03
5.666e-01 2.266e+00 0.000e+00 1.332e-15 -1.087e-03
7.555e-01 2.266e+00 0.000e+00 5.170e-15 -1.086e-03
9.443e-01 2.266e+00 0.000e+00 8.479e-15 -1.084e-03
1.133e+00 2.266e+00 0.000e+00 7.714e-15 -1.081e-03
1.322e+00 2.266e+00 0.000e+00 1.194e-14 -1.079e-03
1.511e+00 2.266e+00 0.000e+00 6.156e-15 -1.077e-03
1.700e+00 2.266e+00 0.000e+00 4.737e-15 -1.075e-03
1.889e+00 2.266e+00 0.000e+00 1.558e-14 -1.073e-03
2.078e+00 2.266e+00 0.000e+00 3.591e-15 -1.072e-03
2.266e+00 2.266e+00 0.000e+00 6.830e-15 -1.071e-03
2.455e+00 2.266e+00 0.000e+00 -2.809e-15 -1.071e-03
2.644e+00 2.266e+00 0.000e+00 -5.985e-15 -1.072e-03
2.833e+00 2.266e+00 0.000e+00 -6.102e-15 -1.073e-03
3.022e+00 2.266e+00 0.000e+00 -1.239e-14 -1.075e-03
3.211e+00 2.266e+00 0.000e+00 -4.921e-15 -1.077e-03
3.400e+00 2.266e+00 0.000e+00 -8.480e-15 -1.079e-03
3.589e+00 2.266e+00 0.000e+00 -1.339e-14 -1.081e-03
3.777e+00 2.266e+00 0.000e+00 -1.357e-14 -1.084e-03
3.966e+00 2.266e+00 0.000e+00 -7.748e-15 -1.086e-03
4.155e+00 2.266e+00 0.000e+00 -7.032e-15 -1.087e-03
4.344e+00 2.266e+00 0.000e+00 -5.799e-15 -1.088e-03
4.533e+00 2.266e+00 0.000e+00 -5.708e-15 -1.089e-03
0.000e+00 2.455e+00 0.000e+00 -2.925e-15 -1.089e-03
1.889e-01 2.455e+00 0.000e+00 -1.048e-15 -1.089e-03
3.777e-01 2.455e+00 0.000e+00 3.754e-15 -1.088e-03
5.666e-01 2.455e+00 0.000e+00 1.332e-15 -1.087e-03
7.555e-01 2.455e+00 0.000e+00 5.170e-15 -1.086e-03
9.443e-01 2.455e+00 0.000e+00 8.479e-15 -1.084e-03
1.133e+00 2.455e+00 0.000e+00 7.714e-15 -1.081e-03
1.322e+00 2.455e+00 0.000e+00 1.194e-14 -1.079e-03
1.511e+00 2.455e+00 0.000e+00 6.156e-15 -1.077e-03
1.700e+00 2.455e+00 0.000e+00 4.737e-15 -1.075e-03
1.889e+00 2.455e+00 0.000e+00 1.558e-14 -1.073e-03
2.078e+00 2.455e+00 0.000e+00 3.591e-15 -1.072e-03
2.266e+00 2.455e+00 0.000e+00 6.830e-15 -1.071e-03
2.455e+00 2.455e+00 0.000e+00 -2.809e-15 -1.071e-03
2.644e+00 2.455e+00 0.000e+00 -5.985e-15 -1.072e-03
2.833e+00 2.455e+00 0.000e+00 -6.102e-15 -1.073e-03
3.022e+00 2.455e+00 0.000e+00 -1.239e-14 -1.075e-03
3.211e+00 2.455e+00 0.000e+00 -4.921e-15 -1.077e-03
3.400e+00 2.455e+00 0.000e+00 -8.480e-15 -1.079e-03
3.589e+00 2.455e+00 0.000e+00 -1.339e-14 -1.081e-03
3.777e+00 2.455e+00 0.000e+00 -1.357e-14 -1.084e-03
3.966e+00 2.455e+00 0.000e+00 -7.748e-15 -1.086e-03
4.155e+00 2.455e+00 0.000e+00 -7.032e-15 -1.087e-03
4.344e+00 2.455e+00 0.000e+00 -5.799e-15 -1.088e-03
4.533e+00 2.455e+00 0.000e+00 -5.708e-15 -1.089e-03
0.000e+00 2.644e+00 0.000e+00 -2.925e-15 -1.089e-03
1.889e-01 2.644e+00 0.000e+00 -1.048e-15 -1.089e-03
3.777e-01 2.644e+00 0.000e+00 3.754e-15 -1.088e-03
5.666e-01 2.644e+00 0.000e+00 1.332e-15 -1.087e-03
7.555e-01 2.644e+00 0.000e+00 5.170e-15 -1.086e-03
9.443e-01 2.644e+00 0.000e+00 8.479e-15 -1.084e-03
1.133e+00 2.644e+00 0.000e+00 7.714e-15 -1.081e-03
1.322e+00 2.644e+00 0.000e+00 1.194e-14 -1.079e-03
1.511e+00 2.644e+00 0.000e+00 6.156e-15 -1.077e-03
1.700e+00 2.644e+00 0.000e+00 4.737e-15 -1.075e-03
1.889e+00 2.644e+00 0.000e+00 1.558e-14 -1.073e-03
2.078e+00 2.644e+00 0.000e+00 3.591e-15 -1.072e-03
2.266e+00 2.644e+00 0.000e+00 6.830e-15 -1.071e-03
2.455e+00 2.644e+00 0.000e+00 -2.809e-15 -1.071e-03
2.644e+00 2.644e+00 0.000e+00 -5.985e-15 -1.072e-03
2.833e+00 2.644e+00 0.000e+00 -6.102e-15 -1.073e-03
3.022e+00 2.644e+00 0.000e+00 -1.239e-14 -1.075e-03
3.211e+00 2.644e+00 0.000e+00 -4.921e-15 -1.077e-03
3.400e+00 2.644e+00 0.000e+00 -8.480e-15 -1.079e-03
3.589e+00 2.644e+00 0.000e+00 -1.339e-14 -1.081e-03
3.777e+00 2.644e+00 0.000e+00 -1.357e-14 -1.084e-03
3.966e+00 2.644e+00 0.000e+00 -7.748e-15 -1.086e-03
4.155e+00 2.644e+00 0.000e+00 -7.032e-15 -1.087e-03
4.344e+00 2.644e+00 0.000e+00 -5.799e-15 -1.088e-03
4.533e+00 2.644e+00 0.000e+00 -5.708e-15 -1.089e-03
0.000e+00 2.833e+00 0.000e+00 -2.925e-15 -1.089e-03
1.889e-01 2.833e+00 0.000e+00 -1.048e-15 -1.089e-03
3.777e-01 2.833e+00 0.000e+00 3.754e-15 -1.088e-03
5.666e-01 2.833e+00 0.000e+00 1.332e-15 -1.087e-03
7.555e-01 2.833e+00 0.000e+00 5.170e-15 -1.086e-03
9.443e-01 2.833e+00 0.000e+00 8.479e-15 -1.084e-03
1.133e+00 2.833e+00 0.000e+00 7.714e-15 -1.081e-03
1.322e+00 2.833e+00 0.000e+00 1.194e-14 -1.079e-03
1.511e+00 2.833e+00 0.000e+00 6.156e-15 -1.077e-03
1.700e+00 2.833e+00 0.000e+00 4.737e-15 -1.075e-03
1.889e+00 2.833e+00 0.000e+00 1.558e-14 -1.073e-03
2.078e+00 2.833e+00 0.000e+00 3.591e-15 -1.072e-03
2.266e+00 2.833e+00 0.000e+00 6.830e-15 -1.071e-03
2.455e+00 2.833e+00 0.000e+00 -2.809e-15 -1.071e-03
2.644e+00 2.833e+00 0.000e+00 -5.985e-15 -1.072e-03
2.833e+00 2.833e+00 0.000e+00 -6.102e-15 -1.073e-03
3.022e+00 2.833e+00 0.000e+00 -1.239e-14 -1.075e-03
3.211e+00 2.833e+00 0.000e+00 -4.921e-15 -1.077e-03
3.400e+00 2.833e+00 0.000e+00 -8.480e-15 -1.079e-03
3.589e+00 2.833e+00 0.000e+00 -1.339e-14 -1.081e-03
3.777e+00 2.833e+00 0.000e+00 -1.357e-14 -1.084e-03
3.966e+00 2.833e+00 0.000e+00 -7.748e-15 -1.086e-03
4.155e+00 2.833e+00 0.000e+00 -7.032e-15 -1.087e-03
4.344e+00 2.833e+00 0.000e+00 -5.799e-15 -1.088e-03
4.533e+00 2.833e+00 0.000e+00 -5.708e-15 -1.089e-03
0.000e+00 3.022e+00 0.000e+00 -2.925e-15 -1.089e-03
1.889e-01 3.022e+00 0.000e+00 -1.048e-15 -1.089e-03
3.777e-01 3.022e+00 0.000e+00 3.754e-15 -1.088e-03
5.666e-01 3.022e+00 0.000e+00 1.332e-15 -1.087e-03
7.555e-01 3.022e+00 0.000e+00 5.170e-15 -1.086e-03
9.443e-01 3.022e+00 0.000e+00 8.479e-15 -1.084e-03
1.133e+00 3.022e+00 0.000e+00 7.714e-15 -1.081e-03
1.322e+00 3.022e+00 0.000e+00 1.194e-14 -1.079e-03
1.511e+00 3.022e+00 0.000e+00 6.156e-15 -1.077e-03
1.700e+00 3.022e+00 0.000e+00 4.737e-15 -1.075e-03
1.889e+00 3.022e+00 0.000e+00 1.558e-14 -1.073e-03
2.078e+00 3.022e+00 0.000e+00 3.591e-15 -1.072e-03
2.266e+00 3.022e+00 0.000e+00 6.830e-15 -1.071e-03
2.455e+00 3.022e+00 0.000e+00 -2.809e-15 -1.071e-03
2.644e+00 3.022e+00 0.000e+00 -5.985e-15 -1.072e-03
2.833e+00 3.022e+00 0.000e+00 -6.102e-15 -1.073e-03
3.022e+00 3.022e+00 0.000e+00 -1.239e-14 -1.075e-03
3.211e+00 3.022e+00 0.000e+00 -4.921e-15 -1.077e-03
3.400e+00 3.022e+00 0.000e+00 -8.480e-15 -1.079e-03
3.589e+00 3.022e+00 0.000e+00 -1.339e-14 -1.081e-03
3.777e+00 3.022e+00 0.000e+00 -1.357e-14 -1.084e-03
3.966e+00 3.022e+00 0.000e+00 -7.748e-15 -1.086e-03
4.155e+00 3.022e+00 0.000e+00 -7.032e-15 -1.087e-03
4.344e+00 3.022e+00 0.000e+00 -5.799e-15 -1.088e-03
4.533e+00 3.022e+00 0.000e+00 -5.708e-15 -1.089e-03
0.000e+00 3.211e+00 0.000e+00 -2.925e-15 -1.089e-03
1.889e-01 3.211e+00 0.000e+00 -1.048e-15 -1.089e-03
3.777e-01 3.211e+00 0.000e+00 3.754e-15 -1.088e-03
5.666e-01 3.211e+00 0.000e+00 1.332e-15 -1.087e-03
7.555e-01 3.211e+00 0.000e+00 5.170e-15 -1.086e-03
9.443e-01 3.211e+00 0.000e+00 8.479e-15 -1.084e-03
1.133e+00 3.211e+00 0.000e+00 7.714e-15 -1.081e-03
1.322e+00 3.211e+00 0.000e+00 1.194e-14 -1.079e-03
1.511e+00 3.211e+00 0.000e+00 6.156e-15 -1.077e-03
1.700e+00 3.211e+00 0.000e+00 4.737e-15 -1.075e-03
1.889e+00 3.211e+00 0.000e+00 1.558e-14 -1.073e-03
2.078e+00 3.211e+00 0.000e+00 3.591e-15 -1.072e-03
2.266e+00 3.211e+00 0.000e+00 6.830e-15 -1.071e-03
2.455e+00 3.211e+00 0.000e+00 -2.809e-15 -1.071e-03
2.644e+00 3.211e+00 0.000e+00 -5.985e-15 -1.072e-03
2.833e+00 3.211e+00 0.000e+00 -6.102e-15 -1.073e-03
3.022e+00 3.211e+00 0.000e+00 -1.239e-14 -1.075e-03
3.211e+00 3.211e+00 0.000e+00 -4.921e-15 -1.077e-03
3.400e+00 3.211e+00 0.000e+00 -8.480e-15 -1.079e-03
3.589e+00 3.211e+00 0.000e+00 -1.339e-14 -1.081e-03
3.777e+00 3.211e+00 0.000e+00 -1.357e-14 -1.084e-03
3.966e+00 3.211e+00 0.000e+00 -7.748e-15 -1.086e-03
4.155e+00 3.211e+00 0.000e+00 -7.032e-15 -1.087e-03
4.344e+00 3.211e+00 0.000e+00 -5.799e-15 -1.088e-03
4.533e+00 3.211e+00 0.000e+00 -5.708e-15 -1.089e-03
0.000e+00 3.400e+00 0.000e+00 -2.925e-15 -1.089e-03
1.889e-01 3.400e+00 0.000e+00 -1.048e-15 -1.089e-03
3.777e-01 3.400e+00 0.000e+00 3.754e-15 -1.088e-03
5.666e-01 3.400e+00 0.000e+00 1.332e-15 -1.087e-03
7.555e-01 3.400e+00 0.000e+00 5.170e-15 -1.086e-03
9.443e-01 3.400e+00 0.000e+00 8.479e-15 -1.084e-03
1.133e+00 3.400e+00 0.000e+00 7.714e-15 -1.081e-03
1.322e+00 3.400e+00 0.000e+00 1.194e-14 -1.079e-03
1.511e+00 3.400e+00 0.000e+00 6.156e-15 -1.077e-03
1.700e+00 3.400e+00 0.000e+00 4.737e-15 -1.075e-03
1.889e+00 3.400e+00 0.000e+00 1.558e-14 -1.073e-03
2.078e+00 3.400e+00 0.000e+00 3.591e-15 -1.072e-03
2.266e+00 3.400e+00 0.000e+00 6.830e-15 -1.071e-03
2.455e+00 3.400e+00 0.000e+00 -2.809e-15 -1.071e-03
2.644e+00 3.400e+00 0.000e+00 -5.985e-15 -1.072e-03
2.833e+00 3.400e+00 0.000e+00 -6.102e-15 -1.073e-03
3.022e+00 3.400e+00 0.000e+00 -1.239e-14 -1.075e-03
3.211e+00 3.400e+00 0.000e+00 -4.921e-15 -1.077e-03
3.400e+00 3.400e+00 0.000e+00 -8.480e-15 -1.079e-03
3.589e+00 3.400e+00 0.000e+00 -1.339e-14 -1.081e-03
3.777e+00 3.400e+00 0.000e+00 -1.357e-14 -1.084e-03
3.966e+00 3.400e+00 0.000e+00 -7.748e-15 -1.086e-03
4.155e+00 3.400e+00 0.000e+00 -7.032e-15 -1.087e-03
4.344e+00 3.400e+00 0.000e+00 -5.799e-15 -1.088e-03
4.533e+00 3.400e+00 0.000e+00 -5.708e-15 -1.089e-03
0.000e+00 3.589e+00 0.000e+00 -2.925e-15 -1.089e-03
1.889e-01 3.589e+00 0.000e+00 -1.048e-15 -1.089e-03
3.777e-01 3.589e+00 0.000e+00 3.754e-15 -1.088e-03
5.666e-01 3.589e+00 0.000e+00 1.332e-15 -1.087e-03
7.555e-01 3.589e+00 0.000e+00 5.170e-15 -1.086e-03
9.443e-01 3.589e+00 0.000e+00 8.479e-15 -1.084e-03
1.133e+00 3.589e+00 0.000e+00 7.714e-15 -1.081e-03
1.322e+00 3.589e+00 0.000e+00 1.194e-14 -1.079e-03
1.511e+00 3.589e+00 0.000e+00 6.156e-15 -1.077e-03
1.700e+00 3.589e+00 0.000e+00 4.737e-15 -1.075e-03
1.889e+00 3.589e+00 0.000e+00 1.558e-14 -1.073e-03
2.078e+00 3.589e+00 0.000e+00 3.591e-15 -1.072e-03
2.266e+00 3.589e+00 0.000e+00 6.830e-15 -1.071e-03
2.455e+00 3.589e+00 0.000e+00 -2.809e-15 -1.071e-03
2.644e+00 3.589e+00 0.000e+00 -5.985e-15 -1.072e-03
2.833e+00 3.589e+00 0.000e+00 -6.102e-15 -1.073e-03
3.022e+00 3.589e+00 0.000e+00 -1.239e-14 -1.075e-03
3.211e+00 3.589e+00 0.000e+00 -4.921e-15 -1.077e-03
3.400e+00 3.589e+00 0.000e+00 -8.480e-15 -1.079e-03
3.589e+00 3.589e+00 0.000e+00 -1.339e-14 -1.081e-03
3.777e+00 3.589e+00 0.000e+00 -1.357e-14 -1.084e-03
3.966e+00 3.589e+00 0.000e+00 -7.748e-15 -1.086e-03
4.155e+00 3.589e+00 0.000e+00 -7.032e-15 -1.087e-03
4.344e+00 3.589e+00 0.000e+00 -5.799e-15 -1.088e-03
4.533e+00 3.589e+00 0.000e+00 -5.708e-15 -1.089e-03
0.000e+00 3.777e+00 0.000e+00 -2.925e-15 -1.089e-03
1.889e-01 3.777e+00 0.000e+00 -1.048e-15 -1.089e-03
3.777e-01 3.777e+00 0.000e+00 3.754e-15 -1.088e-03
5.666e-01 3.777e+00 0.000e+00 1.332e-15 -1.087e-03
7.555e-01 3.777e+00 0.000e+00 5.170e-15 -1.086e-03
9.443e-01 3.777e+00 0.000e+00 8.479e-15 -1.084e-03
1.133e+00 3.777e+00 0.000e+00 7.714e-15 -1.081e-03
1.322e+00 3.777e+00 0.000e+00 1.194e-14 -1.079e-03
1.511e+00 3.777e+00 0.000e+00 6.156e-15 -1.077e-03
1.700e+00 3.777e+00 0.000e+00 4.737e-15 -1.075e-03
1.889e+00 3.777e+00 0.000e+00 1.558e-14 -1.073e-03
2.078e+00 3.777e+00 0.000e+00 3.591e-15 -1.072e-03
2.266e+00 3.777e+00 0.000e+00 6.830e-15 -1.071e-03
2.455e+00 3.777e+00 0.000e+00 -2.809e-15 -1.071e-03
2.644e+00 3.777e+00 0.000e+00 -5.985e-15 -1.072e-03
2.833e+00 3.777e+00 0.000e+00 -6.102e-15 -1.073e-03
3.022e+00 3.777e+00 0.000e+00 -1.239e-14 -1.075e-03
3.211e+00 3.777e+00 0.000e+00 -4.921e-15 -1.077e-03
3.400e+00 3.777e+00 0.000e+00 -8.480e-15 -1.079e-03
3.589e+00 3.777e+00 0.000e+00 -1.339e-14 -1.081e-03
3.777e+00 3.777e+00 0.000e+00 -1.357e-14 -1.084e-03
3.966e+00 3.777e+00 0.000e+00 -7.748e-15 -1.086e-03
4.155e+00 3.777e+00 0.000e+00 -7.032e-15 -1.087e-03
4.344e+00 3.777e+00 0.000e+00 -5.799e-15 -1.088e-03
4.533e+00 3.777e+00 0.000e+00 -5.708e-15 -1.089e-03
0.000e+00 3.966e+00 0.000e+00 -2.925e-15 -1.089e-03
1.889e-01 3.966e+00 0.000e+00 -1.048e-15 -1.089e-03
3.777e-01 3.966e+00 0.000e+00 3.754e-15 -1.088e-03
5.666e-01 3.966e+00 0.000e+00 1.332e-15 -1.087e-03
7.555e-01 3.966e+00 0.000e+00 5.170e-15 -1.086e-03
9.443e-01 3.966e+00 0.000e+00 8.479e-15 -1.084e-03
1.133e+00 3.966e+00 0.000e+00 7.714e-15 -1.081e-03
1.322e+00 3.966e+00 0.000e+00 1.194e-14 -1.079e-03
1.511e+00 3.966e+00 0.000e+00 6.156e-15 -1.077e-03
1.700e+00 3.966e+00 0.000e+00 4.737e-15 -1.075e-03
1.889e+00 3.966e+00 0.000e+00 1.558e-14 -1.073e-03
2.078e+00 3.966e+00 0.000e+00 3.591e-15 -1.072e-03
2.266e+00 3.966e+00 0.000e+00 6.830e-15 -1.071e-03
2.455e+00 3.966e+00 0.000e+00 -2.809e-15 -1.071e-03
2.644e+00 3.966e+00 0.000e+00 -5.985e-15 -1.072e-03
2.833e+00 3.966e+00 0.000e+00 -6.102e-15 -1.073e-03
3.022e+00 3.966e+00 0.000e+00 -1.239e-14 -1.075e-03
3.211e+00 3.966e+00 0.000e+00 -4.921e-15 -1.077e-03
3.400e+00 3.966e+00 0.000e+00 -8.480e-15 -1.079e-03
3.589e+00 3.966e+00 0.000e+00 -1.339e-14 -1.081e-03
3.777e+00 3.966e+00 0.000e+00 -1.357e-14 -1.084e-03
3.966e+00 3.966e+00 0.000e+00 -7.748e-15 -1.086e-03
4.155e+00 3.966e+00 0.000e+00 -7.032e-15 -1.087e-03
4.344e+00 3.966e+00 0.000e+00 -5.799e-15 -1.088e-03
4.533e+00 3.966e+00 0.000e+00 -5.708e-15 -1.089e-03
0.000e+00 4.155e+00 0.000e+00 -2.925e-15 -1.089e-03
1.889e-01 4.155e+00 0.000e+00 -1.048e-15 -1.089e-03
3.777e-01 4.155e+00 0.000e+00 3.754e-15 -1.088e-03
5.666e-01 4.155e+00 0.000e+00 1.332e-15 -1.087e-03
7.555e-01 4.155e+00 0.000e+00 5.170e-15 -1.086e-03
9.443e-01 4.155e+00 0.000e+00 8.479e-15 -1.084e-03
1.133e+00 4.155e+00 0.000e+00 7.714e-15 -1.081e-03
1.322e+00 4.155e+00 0.000e+00 1.194e-14 -1.079e-03
1.511e+00 4.155e+00 0.000e+00 6.156e-15 -1.077e-03
1.700e+00 4.155e+00 0.000e+00 4.737e-15 -1.075e-03
1.889e+00 4.155e+00 0.000e+00 1.558e-14 -1.073e-03
2.078e+00 4.155e+00 0.000e+00 3.591e-15 -1.072e-03
2.266e+00 4.155e+00 0.000e+00 6.830e-15 -1.071e-03
2.455e+00 4.155e+00 0.000e+00 -2.809e-15 -1.071e-03
2.644e+00 4.155e+00 0.000e+00 -5.985e-15 -1.072e-03
2.833e+00 4.155e+00 0.000e+00 -6.102e-15 -1.073e-03
3.022e+00 4.155e+00 0.000e+00 -1.239e-14 -1.075e-03
3.211e+00 4.155e+00 0.000e+00 -4.921e-15 -1.077e-03
3.400e+00 4.155e+00 0.000e+00 -8.480e-15 -1.079e-03
3.589e+00 4.155e+00 0.000e+00 -1.339e-14 -1.081e-03
3.777e+00 4.155e+00 0.000e+00 -1.357e-14 -1.084e-03
3.966e+00 4.155e+00 0.000e+00 -7.748e-15 -1.086e-03
4.155e+00 4.155e+00 0.000e+00 -7.032e-15 -1.087e-03
4.344e+00 4.155e+00 0.000e+00 -5.799e-15 -1.088e-03
4.533e+00 4.155e+00 0.000e+00 -5.708e-15 -1.089e-03
0.000e+00 4.344e+00 0.000e+00 -2.925e-15 -1.089e-03
1.889e-01 4.344e+00 0.000e+00 -1.048e-15 -1.089e-03
3.777e-01 4.344e+00 0.000e+00 3.754e-15 -1.088e-03
5.666e-01 4.344e+00 0.000e+00 1.332e-15 -1.087e-03
7.555e-01 4.344e+00 0.000e+00 5.170e-15 -1.086e-03