TITLE = "wpl"
VARIABLES = "X", "Y", "Z", "Real", "Imaginary"
ZONE I=25, J=25, K=75, F=POINT
0.000e+00 0.000e+00 0.000e+00 -6.825e-14 -6.483e-03
1.889e-01 0.000e+00 0.000e+00 -6.582e-14 -6.470e-03
3.777e-01 0.000e+00 0.000e+00 -6.467e-14 -6.432e-03
5.666e-01 0.000e+00 0.000e+00 -6.227e-14 -6.373e-03
7.555e-01 0.000e+00 0.000e+00 -5.381e-14 -6.297e-03
9.443e-01 0.000e+00 0.000e+00 -3.883e-14 -6.209e-03
1.133e+00 0.000e+00 0.000e+00 -3.726e-14 -6.115e-03
1.322e+00 0.000e+00 0.000e+00 -3.760e-14 -6.021e-03
1.511e+00 0.000e+00 0.000e+00 -4.253e-14 -5.931e-03
1.700e+00 0.000e+00 0.000e+00 -8.607e-15 -5.851e-03
1.889e+00 0.000e+00 0.000e+00 -1.160e-14 -5.786e-03
2.078e+00 0.000e+00 0.000e+00 -7.130e-15 -5.740e-03
2.266e+00 0.000e+00 0.000e+00 -2.624e-15 -5.716e-03
2.455e+00 0.000e+00 0.000e+00 3.629e-15 -5.716e-03
2.644e+00 0.000e+00 0.000e+00 7.277e-15 -5.740e-03
2.833e+00 0.000e+00 0.000e+00 4.825e-15 -5.786e-03
3.022e+00 0.000e+00 0.000e+00 -1.069e-14 -5.851e-03
3.211e+00 0.000e+00 0.000e+00 -2.907e-15 -5.931e-03
3.400e+00 0.000e+00 0.000e+00 -1.004e-14 -6.021e-03
3.589e+00 0.000e+00 0.000e+00 -3.361e-14 -6.115e-03
3.777e+00 0.000e+00 0.000e+00 -1.982e-14 -6.209e-03
3.966e+00 0.000e+00 0.000e+00 -4.470e-14 -6.297e-03
4.155e+00 0.000e+00 0.000e+00 -4.897e-14 -6.373e-03
4.344e+00 0.000e+00 0.000e+00 -5.210e-14 -6.432e-03
4.533e+00 0.000e+00 0.000e+00 -5.629e-14 -6.470e-03
0.000e+00 1.889e-01 0.000e+00 -6.825e-14 -6.483e-03
1.889e-01 1.889e-01 0.000e+00 -6.582e-14 -6.470e-03
3.777e-01 1.889e-01 0.000e+00 -6.467e-14 -6.432e-03
5.666e-01 1.889e-01 0.000e+00 -6.227e-14 -6.373e-03
7.555e-01 1.889e-01 0.000e+00 -5.381e-14 -6.297e-03
9.443e-01 1.889e-01 0.000e+00 -3.883e-14 -6.209e-03
1.133e+00 1.889e-01 0.000e+00 -3.726e-14 -6.115e-03
1.322e+00 1.889e-01 0.000e+00 -3.760e-14 -6.021e-03
1.511e+00 1.889e-01 0.000e+00 -4.253e-14 -5.931e-03
1.700e+00 1.889e-01 0.000e+00 -8.607e-15 -5.851e-03
1.889e+00 1.889e-01 0.000e+00 -1.160e-14 -5.786e-03
2.078e+00 1.889e-01 0.000e+00 -7.130e-15 -5.740e-03
2.266e+00 1.889e-01 0.000e+00 -2.624e-15 -5.716e-03
2.455e+00 1.889e-01 0.000e+00 3.629e-15 -5.716e-03
2.644e+00 1.889e-01 0.000e+00 7.277e-15 -5.740e-03
2.833e+00 1.889e-01 0.000e+00 4.825e-15 -5.786e-03
3.022e+00 1.889e-01 0.000e+00 -1.069e-14 -5.851e-03
3.211e+00 1.889e-01 0.000e+00 -2.907e-15 -5.931e-03
3.400e+00 1.889e-01 0.000e+00 -1.004e-14 -6.021e-03
3.589e+00 1.889e-01 0.000e+00 -3.361e-14 -6.115e-03
3.777e+00 1.889e-01 0.000e+00 -1.982e-14 -6.209e-03
3.966e+00 1.889e-01 0.000e+00 -4.470e-14 -6.297e-03
4.155e+00 1.889e-01 0.000e+00 -4.897e-14 -6.373e-03
4.344e+00 1.889e-01 0.000e+00 -5.210e-14 -6.432e-03
4.533e+00 1.889e-01 0.000e+00 -5.629e-14 -6.470e-03
0.000e+00 3.777e-01 0.000e+00 -6.825e-14 -6.483e-03
1.889e-01 3.777e-01 0.000e+00 -6.582e-14 -6.470e-03
3.777e-01 3.777e-01 0.000e+00 -6.467e-14 -6.432e-03
5.666e-01 3.777e-01 0.000e+00 -6.227e-14 -6.373e-03
7.555e-01 3.777e-01 0.000e+00 -5.381e-14 -6.297e-03
9.443e-01 3.777e-01 0.000e+00 -3.883e-14 -6.209e-03
1.133e+00 3.777e-01 0.000e+00 -3.726e-14 -6.115e-03
1.322e+00 3.777e-01 0.000e+00 -3.760e-14 -6.021e-03
1.511e+00 3.777e-01 0.000e+00 -4.253e-14 -5.931e-03
1.700e+00 3.777e-01 0.000e+00 -8.607e-15 -5.851e-03
1.889e+00 3.777e-01 0.000e+00 -1.160e-14 -5.786e-03
2.078e+00 3.777e-01 0.000e+00 -7.130e-15 -5.740e-03
2.266e+00 3.777e-01 0.000e+00 -2.624e-15 -5.716e-03
2.455e+00 3.777e-01 0.000e+00 3.629e-15 -5.716e-03
2.644e+00 3.777e-01 0.000e+00 7.277e-15 -5.740e-03
2.833e+00 3.777e-01 0.000e+00 4.825e-15 -5.786e-03
3.022e+00 3.777e-01 0.000e+00 -1.069e-14 -5.851e-03
3.211e+00 3.777e-01 0.000e+00 -2.907e-15 -5.931e-03
3.400e+00 3.777e-01 0.000e+00 -1.004e-14 -6.021e-03
3.589e+00 3.777e-01 0.000e+00 -3.361e-14 -6.115e-03
3.777e+00 3.777e-01 0.000e+00 -1.982e-14 -6.209e-03
3.966e+00 3.777e-01 0.000e+00 -4.470e-14 -6.297e-03
4.155e+00 3.777e-01 0.000e+00 -4.897e-14 -6.373e-03
4.344e+00 3.777e-01 0.000e+00 -5.210e-14 -6.432e-03
4.533e+00 3.777e-01 0.000e+00 -5.629e-14 -6.470e-03
0.000e+00 5.666e-01 0.000e+00 -6.825e-14 -6.483e-03
1.889e-01 5.666e-01 0.000e+00 -6.582e-14 -6.470e-03
3.777e-01 5.666e-01 0.000e+00 -6.467e-14 -6.432e-03
5.666e-01 5.666e-01 0.000e+00 -6.227e-14 -6.373e-03
7.555e-01 5.666e-01 0.000e+00 -5.381e-14 -6.297e-03
9.443e-01 5.666e-01 0.000e+00 -3.883e-14 -6.209e-03
1.133e+00 5.666e-01 0.000e+00 -3.726e-14 -6.115e-03
1.322e+00 5.666e-01 0.000e+00 -3.760e-14 -6.021e-03
1.511e+00 5.666e-01 0.000e+00 -4.253e-14 -5.931e-03
1.700e+00 5.666e-01 0.000e+00 -8.607e-15 -5.851e-03
1.889e+00 5.666e-01 0.000e+00 -1.160e-14 -5.786e-03
2.078e+00 5.666e-01 0.000e+00 -7.130e-15 -5.740e-03
2.266e+00 5.666e-01 0.000e+00 -2.624e-15 -5.716e-03
2.455e+00 5.666e-01 0.000e+00 3.629e-15 -5.716e-03
2.644e+00 5.666e-01 0.000e+00 7.277e-15 -5.740e-03
2.833e+00 5.666e-01 0.000e+00 4.825e-15 -5.786e-03
3.022e+00 5.666e-01 0.000e+00 -1.069e-14 -5.851e-03
3.211e+00 5.666e-01 0.000e+00 -2.907e-15 -5.931e-03
3.400e+00 5.666e-01 0.000e+00 -1.004e-14 -6.021e-03
3.589e+00 5.666e-01 0.000e+00 -3.361e-14 -6.115e-03
3.777e+00 5.666e-01 0.000e+00 -1.982e-14 -6.209e-03
3.966e+00 5.666e-01 0.000e+00 -4.470e-14 -6.297e-03
4.155e+00 5.666e-01 0.000e+00 -4.897e-14 -6.373e-03
4.344e+00 5.666e-01 0.000e+00 -5.210e-14 -6.432e-03
4.533e+00 5.666e-01 0.000e+00 -5.629e-14 -6.470e-03
0.000e+00 7.555e-01 0.000e+00 -6.825e-14 -6.483e-03
1.889e-01 7.555e-01 0.000e+00 -6.582e-14 -6.470e-03
3.777e-01 7.555e-01 0.000e+00 -6.467e-14 -6.432e-03
5.666e-01 7.555e-01 0.000e+00 -6.227e-14 -6.373e-03
7.555e-01 7.555e-01 0.000e+00 -5.381e-14 -6.297e-03
9.443e-01 7.555e-01 0.000e+00 -3.883e-14 -6.209e-03
1.133e+00 7.555e-01 0.000e+00 -3.726e-14 -6.115e-03
1.322e+00 7.555e-01 0.000e+00 -3.760e-14 -6.021e-03
1.511e+00 7.555e-01 0.000e+00 -4.253e-14 -5.931e-03
1.700e+00 7.555e-01 0.000e+00 -8.607e-15 -5.851e-03
1.889e+00 7.555e-01 0.000e+00 -1.160e-14 -5.786e-03
2.078e+00 7.555e-01 0.000e+00 -7.130e-15 -5.740e-03
2.266e+00 7.555e-01 0.000e+00 -2.624e-15 -5.716e-03
2.455e+00 7.555e-01 0.000e+00 3.629e-15 -5.716e-03
2.644e+00 7.555e-01 0.000e+00 7.277e-15 -5.740e-03
2.833e+00 7.555e-01 0.000e+00 4.825e-15 -5.786e-03
3.022e+00 7.555e-01 0.000e+00 -1.069e-14 -5.851e-03
3.211e+00 7.555e-01 0.000e+00 -2.907e-15 -5.931e-03
3.400e+00 7.555e-01 0.000e+00 -1.004e-14 -6.021e-03
3.589e+00 7.555e-01 0.000e+00 -3.361e-14 -6.115e-03
3.777e+00 7.555e-01 0.000e+00 -1.982e-14 -6.209e-03
3.966e+00 7.555e-01 0.000e+00 -4.470e-14 -6.297e-03
4.155e+00 7.555e-01 0.000e+00 -4.897e-14 -6.373e-03
4.344e+00 7.555e-01 0.000e+00 -5.210e-14 -6.432e-03
4.533e+00 7.555e-01 0.000e+00 -5.629e-14 -6.470e-03
0.000e+00 9.443e-01 0.000e+00 -6.825e-14 -6.483e-03
1.889e-01 9.443e-01 0.000e+00 -6.582e-14 -6.470e-03
3.777e-01 9.443e-01 0.000e+00 -6.467e-14 -6.432e-03
5.666e-01 9.443e-01 0.000e+00 -6.227e-14 -6.373e-03
7.555e-01 9.443e-01 0.000e+00 -5.381e-14 -6.297e-03
9.443e-01 9.443e-01 0.000e+00 -3.883e-14 -6.209e-03
1.133e+00 9.443e-01 0.000e+00 -3.726e-14 -6.115e-03
1.322e+00 9.443e-01 0.000e+00 -3.760e-14 -6.021e-03
1.511e+00 9.443e-01 0.000e+00 -4.253e-14 -5.931e-03
1.700e+00 9.443e-01 0.000e+00 -8.607e-15 -5.851e-03
1.889e+00 9.443e-01 0.000e+00 -1.160e-14 -5.786e-03
2.078e+00 9.443e-01 0.000e+00 -7.130e-15 -5.740e-03
2.266e+00 9.443e-01 0.000e+00 -2.624e-15 -5.716e-03
2.455e+00 9.443e-01 0.000e+00 3.629e-15 -5.716e-03
2.644e+00 9.443e-01 0.000e+00 7.277e-15 -5.740e-03
2.833e+00 9.443e-01 0.000e+00 4.825e-15 -5.786e-03
3.022e+00 9.443e-01 0.000e+00 -1.069e-14 -5.851e-03
3.211e+00 9.443e-01 0.000e+00 -2.907e-15 -5.931e-03
3.400e+00 9.443e-01 0.000e+00 -1.004e-14 -6.021e-03
3.589e+00 9.443e-01 0.000e+00 -3.361e-14 -6.115e-03
3.777e+00 9.443e-01 0.000e+00 -1.982e-14 -6.209e-03
3.966e+00 9.443e-01 0.000e+00 -4.470e-14 -6.297e-03
4.155e+00 9.443e-01 0.000e+00 -4.897e-14 -6.373e-03
4.344e+00 9.443e-01 0.000e+00 -5.210e-14 -6.432e-03
4.533e+00 9.443e-01 0.000e+00 -5.629e-14 -6.470e-03
0.000e+00 1.133e+00 0.000e+00 -6.825e-14 -6.483e-03
1.889e-01 1.133e+00 0.000e+00 -6.582e-14 -6.470e-03
3.777e-01 1.133e+00 0.000e+00 -6.467e-14 -6.432e-03
5.666e-01 1.133e+00 0.000e+00 -6.227e-14 -6.373e-03
7.555e-01 1.133e+00 0.000e+00 -5.381e-14 -6.297e-03
9.443e-01 1.133e+00 0.000e+00 -3.883e-14 -6.209e-03
1.133e+00 1.133e+00 0.000e+00 -3.726e-14 -6.115e-03
1.322e+00 1.133e+00 0.000e+00 -3.760e-14 -6.021e-03
1.511e+00 1.133e+00 0.000e+00 -4.253e-14 -5.931e-03
1.700e+00 1.133e+00 0.000e+00 -8.607e-15 -5.851e-03
1.889e+00 1.133e+00 0.000e+00 -1.160e-14 -5.786e-03
2.078e+00 1.133e+00 0.000e+00 -7.130e-15 -5.740e-03
2.266e+00 1.133e+00 0.000e+00 -2.624e-15 -5.716e-03
2.455e+00 1.133e+00 0.000e+00 3.629e-15 -5.716e-03
2.644e+00 1.133e+00 0.000e+00 7.277e-15 -5.740e-03
2.833e+00 1.133e+00 0.000e+00 4.825e-15 -5.786e-03
3.022e+00 1.133e+00 0.000e+00 -1.069e-14 -5.851e-03
3.211e+00 1.133e+00 0.000e+00 -2.907e-15 -5.931e-03
3.400e+00 1.133e+00 0.000e+00 -1.004e-14 -6.021e-03
3.589e+00 1.133e+00 0.000e+00 -3.361e-14 -6.115e-03
3.777e+00 1.133e+00 0.000e+00 -1.982e-14 -6.209e-03
3.966e+00 1.133e+00 0.000e+00 -4.470e-14 -6.297e-03
4.155e+00 1.133e+00 0.000e+00 -4.897e-14 -6.373e-03
4.344e+00 1.133e+00 0.000e+00 -5.210e-14 -6.432e-03
4.533e+00 1.133e+00 0.000e+00 -5.629e-14 -6.470e-03
0.000e+00 1.322e+00 0.000e+00 -6.825e-14 -6.483e-03
1.889e-01 1.322e+00 0.000e+00 -6.582e-14 -6.470e-03
3.777e-01 1.322e+00 0.000e+00 -6.467e-14 -6.432e-03
5.666e-01 1.322e+00 0.000e+00 -6.227e-14 -6.373e-03
7.555e-01 1.322e+00 0.000e+00 -5.381e-14 -6.297e-03
9.443e-01 1.322e+00 0.000e+00 -3.883e-14 -6.209e-03
1.133e+00 1.322e+00 0.000e+00 -3.726e-14 -6.115e-03
1.322e+00 1.322e+00 0.000e+00 -3.760e-14 -6.021e-03
1.511e+00 1.322e+00 0.000e+00 -4.253e-14 -5.931e-03
1.700e+00 1.322e+00 0.000e+00 -8.607e-15 -5.851e-03
1.889e+00 1.322e+00 0.000e+00 -1.160e-14 -5.786e-03
2.078e+00 1.322e+00 0.000e+00 -7.130e-15 -5.740e-03
2.266e+00 1.322e+00 0.000e+00 -2.624e-15 -5.716e-03
2.455e+00 1.322e+00 0.000e+00 3.629e-15 -5.716e-03
2.644e+00 1.322e+00 0.000e+00 7.277e-15 -5.740e-03
2.833e+00 1.322e+00 0.000e+00 4.825e-15 -5.786e-03
3.022e+00 1.322e+00 0.000e+00 -1.069e-14 -5.851e-03
3.211e+00 1.322e+00 0.000e+00 -2.907e-15 -5.931e-03
3.400e+00 1.322e+00 0.000e+00 -1.004e-14 -6.021e-03
3.589e+00 1.322e+00 0.000e+00 -3.361e-14 -6.115e-03
3.777e+00 1.322e+00 0.000e+00 -1.982e-14 -6.209e-03
3.966e+00 1.322e+00 0.000e+00 -4.470e-14 -6.297e-03
4.155e+00 1.322e+00 0.000e+00 -4.897e-14 -6.373e-03
4.344e+00 1.322e+00 0.000e+00 -5.210e-14 -6.432e-03
4.533e+00 1.322e+00 0.000e+00 -5.629e-14 -6.470e-03
0.000e+00 1.511e+00 0.000e+00 -6.825e-14 -6.483e-03
1.889e-01 1.511e+00 0.000e+00 -6.582e-14 -6.470e-03
3.777e-01 1.511e+00 0.000e+00 -6.467e-14 -6.432e-03
5.666e-01 1.511e+00 0.000e+00 -6.227e-14 -6.373e-03
7.555e-01 1.511e+00 0.000e+00 -5.381e-14 -6.297e-03
9.443e-01 1.511e+00 0.000e+00 -3.883e-14 -6.209e-03
1.133e+00 1.511e+00 0.000e+00 -3.726e-14 -6.115e-03
1.322e+00 1.511e+00 0.000e+00 -3.760e-14 -6.021e-03
1.511e+00 1.511e+00 0.000e+00 -4.253e-14 -5.931e-03
1.700e+00 1.511e+00 0.000e+00 -8.607e-15 -5.851e-03
1.889e+00 1.511e+00 0.000e+00 -1.160e-14 -5.786e-03
2.078e+00 1.511e+00 0.000e+00 -7.130e-15 -5.740e-03
2.266e+00 1.511e+00 0.000e+00 -2.624e-15 -5.716e-03
2.455e+00 1.511e+00 0.000e+00 3.629e-15 -5.716e-03
2.644e+00 1.511e+00 0.000e+00 7.277e-15 -5.740e-03
2.833e+00 1.511e+00 0.000e+00 4.825e-15 -5.786e-03
3.022e+00 1.511e+00 0.000e+00 -1.069e-14 -5.851e-03
3.211e+00 1.511e+00 0.000e+00 -2.907e-15 -5.931e-03
3.400e+00 1.511e+00 0.000e+00 -1.004e-14 -6.021e-03
3.589e+00 1.511e+00 0.000e+00 -3.361e-14 -6.115e-03
3.777e+00 1.511e+00 0.000e+00 -1.982e-14 -6.209e-03
3.966e+00 1.511e+00 0.000e+00 -4.470e-14 -6.297e-03
4.155e+00 1.511e+00 0.000e+00 -4.897e-14 -6.373e-03
4.344e+00 1.511e+00 0.000e+00 -5.210e-14 -6.432e-03
4.533e+00 1.511e+00 0.000e+00 -5.629e-14 -6.470e-03
0.000e+00 1.700e+00 0.000e+00 -6.825e-14 -6.483e-03
1.889e-01 1.700e+00 0.000e+00 -6.582e-14 -6.470e-03
3.777e-01 1.700e+00 0.000e+00 -6.467e-14 -6.432e-03
5.666e-01 1.700e+00 0.000e+00 -6.227e-14 -6.373e-03
7.555e-01 1.700e+00 0.000e+00 -5.381e-14 -6.297e-03
9.443e-01 1.700e+00 0.000e+00 -3.883e-14 -6.209e-03
1.133e+00 1.700e+00 0.000e+00 -3.726e-14 -6.115e-03
1.322e+00 1.700e+00 0.000e+00 -3.760e-14 -6.021e-03
1.511e+00 1.700e+00 0.000e+00 -4.253e-14 -5.931e-03
1.700e+00 1.700e+00 0.000e+00 -8.607e-15 -5.851e-03
1.889e+00 1.700e+00 0.000e+00 -1.160e-14 -5.786e-03
2.078e+00 1.700e+00 0.000e+00 -7.130e-15 -5.740e-03
2.266e+00 1.700e+00 0.000e+00 -2.624e-15 -5.716e-03
2.455e+00 1.700e+00 0.000e+00 3.629e-15 -5.716e-03
2.644e+00 1.700e+00 0.000e+00 7.277e-15 -5.740e-03
2.833e+00 1.700e+00 0.000e+00 4.825e-15 -5.786e-03
3.022e+00 1.700e+00 0.000e+00 -1.069e-14 -5.851e-03
3.211e+00 1.700e+00 0.000e+00 -2.907e-15 -5.931e-03
3.400e+00 1.700e+00 0.000e+00 -1.004e-14 -6.021e-03
3.589e+00 1.700e+00 0.000e+00 -3.361e-14 -6.115e-03
3.777e+00 1.700e+00 0.000e+00 -1.982e-14 -6.209e-03
3.966e+00 1.700e+00 0.000e+00 -4.470e-14 -6.297e-03
4.155e+00 1.700e+00 0.000e+00 -4.897e-14 -6.373e-03
4.344e+00 1.700e+00 0.000e+00 -5.210e-14 -6.432e-03
4.533e+00 1.700e+00 0.000e+00 -5.629e-14 -6.470e-03
0.000e+00 1.889e+00 0.000e+00 -6.825e-14 -6.483e-03
1.889e-01 1.889e+00 0.000e+00 -6.582e-14 -6.470e-03
3.777e-01 1.889e+00 0.000e+00 -6.467e-14 -6.432e-03
5.666e-01 1.889e+00 0.000e+00 -6.227e-14 -6.373e-03
7.555e-01 1.889e+00 0.000e+00 -5.381e-14 -6.297e-03
9.443e-01 1.889e+00 0.000e+00 -3.883e-14 -6.209e-03
1.133e+00 1.889e+00 0.000e+00 -3.726e-14 -6.115e-03
1.322e+00 1.889e+00 0.000e+00 -3.760e-14 -6.021e-03
1.511e+00 1.889e+00 0.000e+00 -4.253e-14 -5.931e-03
1.700e+00 1.889e+00 0.000e+00 -8.607e-15 -5.851e-03
1.889e+00 1.889e+00 0.000e+00 -1.160e-14 -5.786e-03
2.078e+00 1.889e+00 0.000e+00 -7.130e-15 -5.740e-03
2.266e+00 1.889e+00 0.000e+00 -2.624e-15 -5.716e-03
2.455e+00 1.889e+00 0.000e+00 3.629e-15 -5.716e-03
2.644e+00 1.889e+00 0.000e+00 7.277e-15 -5.740e-03
2.833e+00 1.889e+00 0.000e+00 4.825e-15 -5.786e-03
3.022e+00 1.889e+00 0.000e+00 -1.069e-14 -5.851e-03
3.211e+00 1.889e+00 0.000e+00 -2.907e-15 -5.931e-03
3.400e+00 1.889e+00 0.000e+00 -1.004e-14 -6.021e-03
3.589e+00 1.889e+00 0.000e+00 -3.361e-14 -6.115e-03
3.777e+00 1.889e+00 0.000e+00 -1.982e-14 -6.209e-03
3.966e+00 1.889e+00 0.000e+00 -4.470e-14 -6.297e-03
4.155e+00 1.889e+00 0.000e+00 -4.897e-14 -6.373e-03
4.344e+00 1.889e+00 0.000e+00 -5.210e-14 -6.432e-03
4.533e+00 1.889e+00 0.000e+00 -5.629e-14 -6.470e-03
0.000e+00 2.078e+00 0.000e+00 -6.825e-14 -6.483e-03
1.889e-01 2.078e+00 0.000e+00 -6.582e-14 -6.470e-03
3.777e-01 2.078e+00 0.000e+00 -6.467e-14 -6.432e-03
5.666e-01 2.078e+00 0.000e+00 -6.227e-14 -6.373e-03
7.555e-01 2.078e+00 0.000e+00 -5.381e-14 -6.297e-03
9.443e-01 2.078e+00 0.000e+00 -3.883e-14 -6.209e-03
1.133e+00 2.078e+00 0.000e+00 -3.726e-14 -6.115e-03
1.322e+00 2.078e+00 0.000e+00 -3.760e-14 -6.021e-03
1.511e+00 2.078e+00 0.000e+00 -4.253e-14 -5.931e-03
1.700e+00 2.078e+00 0.000e+00 -8.607e-15 -5.851e-03
1.889e+00 2.078e+00 0.000e+00 -1.160e-14 -5.786e-03
2.078e+00 2.078e+00 0.000e+00 -7.130e-15 -5.740e-03
2.266e+00 2.078e+00 0.000e+00 -2.624e-15 -5.716e-03
2.455e+00 2.078e+00 0.000e+00 3.629e-15 -5.716e-03
2.644e+00 2.078e+00 0.000e+00 7.277e-15 -5.740e-03
2.833e+00 2.078e+00 0.000e+00 4.825e-15 -5.786e-03
3.022e+00 2.078e+00 0.000e+00 -1.069e-14 -5.851e-03
3.211e+00 2.078e+00 0.000e+00 -2.907e-15 -5.931e-03
3.400e+00 2.078e+00 0.000e+00 -1.004e-14 -6.021e-03
3.589e+00 2.078e+00 0.000e+00 -3.361e-14 -6.115e-03
3.777e+00 2.078e+00 0.000e+00 -1.982e-14 -6.209e-03
3.966e+00 2.078e+00 0.000e+00 -4.470e-14 -6.297e-03
4.155e+00 2.078e+00 0.000e+00 -4.897e-14 -6.373e-03
4.344e+00 2.078e+00 0.000e+00 -5.210e-14 -6.432e-03
4.533e+00 2.078e+00 0.000e+00 -5.629e-14 -6.470e-03
0.000e+00 2.266e+00 0.000e+00 -6.825e-14 -6.483e-03
1.889e-01 2.266e+00 0.000e+00 -6.582e-14 -6.470e-03
3.777e-01 2.266e+00 0.000e+00 -6.467e-14 -6.432e-03
5.666e-01 2.266e+00 0.000e+00 -6.227e-14 -6.373e-03
7.555e-01 2.266e+00 0.000e+00 -5.381e-14 -6.297e-03
9.443e-01 2.266e+00 0.000e+00 -3.883e-14 -6.209e-03
1.133e+00 2.266e+00 0.000e+00 -3.726e-14 -6.115e-03
1.322e+00 2.266e+00 0.000e+00 -3.760e-14 -6.021e-03
1.511e+00 2.266e+00 0.000e+00 -4.253e-14 -5.931e-03
1.700e+00 2.266e+00 0.000e+00 -8.607e-15 -5.851e-03
1.889e+00 2.266e+00 0.000e+00 -1.160e-14 -5.786e-03
2.078e+00 2.266e+00 0.000e+00 -7.130e-15 -5.740e-03
2.266e+00 2.266e+00 0.000e+00 -2.624e-15 -5.716e-03
2.455e+00 2.266e+00 0.000e+00 3.629e-15 -5.716e-03
2.644e+00 2.266e+00 0.000e+00 7.277e-15 -5.740e-03
2.833e+00 2.266e+00 0.000e+00 4.825e-15 -5.786e-03
3.022e+00 2.266e+00 0.000e+00 -1.069e-14 -5.851e-03
3.211e+00 2.266e+00 0.000e+00 -2.907e-15 -5.931e-03
3.400e+00 2.266e+00 0.000e+00 -1.004e-14 -6.021e-03
3.589e+00 2.266e+00 0.000e+00 -3.361e-14 -6.115e-03
3.777e+00 2.266e+00 0.000e+00 -1.982e-14 -6.209e-03
3.966e+00 2.266e+00 0.000e+00 -4.470e-14 -6.297e-03
4.155e+00 2.266e+00 0.000e+00 -4.897e-14 -6.373e-03
4.344e+00 2.266e+00 0.000e+00 -5.210e-14 -6.432e-03
4.533e+00 2.266e+00 0.000e+00 -5.629e-14 -6.470e-03
0.000e+00 2.455e+00 0.000e+00 -6.825e-14 -6.483e-03
1.889e-01 2.455e+00 0.000e+00 -6.582e-14 -6.470e-03
3.777e-01 2.455e+00 0.000e+00 -6.467e-14 -6.432e-03
5.666e-01 2.455e+00 0.000e+00 -6.227e-14 -6.373e-03
7.555e-01 2.455e+00 0.000e+00 -5.381e-14 -6.297e-03
9.443e-01 2.455e+00 0.000e+00 -3.883e-14 -6.209e-03
1.133e+00 2.455e+00 0.000e+00 -3.726e-14 -6.115e-03
1.322e+00 2.455e+00 0.000e+00 -3.760e-14 -6.021e-03
1.511e+00 2.455e+00 0.000e+00 -4.253e-14 -5.931e-03
1.700e+00 2.455e+00 0.000e+00 -8.607e-15 -5.851e-03
1.889e+00 2.455e+00 0.000e+00 -1.160e-14 -5.786e-03
2.078e+00 2.455e+00 0.000e+00 -7.130e-15 -5.740e-03
2.266e+00 2.455e+00 0.000e+00 -2.624e-15 -5.716e-03
2.455e+00 2.455e+00 0.000e+00 3.629e-15 -5.716e-03
2.644e+00 2.455e+00 0.000e+00 7.277e-15 -5.740e-03
2.833e+00 2.455e+00 0.000e+00 4.825e-15 -5.786e-03
3.022e+00 2.455e+00 0.000e+00 -1.069e-14 -5.851e-03
3.211e+00 2.455e+00 0.000e+00 -2.907e-15 -5.931e-03
3.400e+00 2.455e+00 0.000e+00 -1.004e-14 -6.021e-03
3.589e+00 2.455e+00 0.000e+00 -3.361e-14 -6.115e-03
3.777e+00 2.455e+00 0.000e+00 -1.982e-14 -6.209e-03
3.966e+00 2.455e+00 0.000e+00 -4.470e-14 -6.297e-03
4.155e+00 2.455e+00 0.000e+00 -4.897e-14 -6.373e-03
4.344e+00 2.455e+00 0.000e+00 -5.210e-14 -6.432e-03
4.533e+00 2.455e+00 0.000e+00 -5.629e-14 -6.470e-03
0.000e+00 2.644e+00 0.000e+00 -6.825e-14 -6.483e-03
1.889e-01 2.644e+00 0.000e+00 -6.582e-14 -6.470e-03
3.777e-01 2.644e+00 0.000e+00 -6.467e-14 -6.432e-03
5.666e-01 2.644e+00 0.000e+00 -6.227e-14 -6.373e-03
7.555e-01 2.644e+00 0.000e+00 -5.381e-14 -6.297e-03
9.443e-01 2.644e+00 0.000e+00 -3.883e-14 -6.209e-03
1.133e+00 2.644e+00 0.000e+00 -3.726e-14 -6.115e-03
1.322e+00 2.644e+00 0.000e+00 -3.760e-14 -6.021e-03
1.511e+00 2.644e+00 0.000e+00 -4.253e-14 -5.931e-03
1.700e+00 2.644e+00 0.000e+00 -8.607e-15 -5.851e-03
1.889e+00 2.644e+00 0.000e+00 -1.160e-14 -5.786e-03
2.078e+00 2.644e+00 0.000e+00 -7.130e-15 -5.740e-03
2.266e+00 2.644e+00 0.000e+00 -2.624e-15 -5.716e-03
2.455e+00 2.644e+00 0.000e+00 3.629e-15 -5.716e-03
2.644e+00 2.644e+00 0.000e+00 7.277e-15 -5.740e-03
2.833e+00 2.644e+00 0.000e+00 4.825e-15 -5.786e-03
3.022e+00 2.644e+00 0.000e+00 -1.069e-14 -5.851e-03
3.211e+00 2.644e+00 0.000e+00 -2.907e-15 -5.931e-03
3.400e+00 2.644e+00 0.000e+00 -1.004e-14 -6.021e-03
3.589e+00 2.644e+00 0.000e+00 -3.361e-14 -6.115e-03
3.777e+00 2.644e+00 0.000e+00 -1.982e-14 -6.209e-03
3.966e+00 2.644e+00 0.000e+00 -4.470e-14 -6.297e-03
4.155e+00 2.644e+00 0.000e+00 -4.897e-14 -6.373e-03
4.344e+00 2.644e+00 0.000e+00 -5.210e-14 -6.432e-03
4.533e+00 2.644e+00 0.000e+00 -5.629e-14 -6.470e-03
0.000e+00 2.833e+00 0.000e+00 -6.825e-14 -6.483e-03
1.889e-01 2.833e+00 0.000e+00 -6.582e-14 -6.470e-03
3.777e-01 2.833e+00 0.000e+00 -6.467e-14 -6.432e-03
5.666e-01 2.833e+00 0.000e+00 -6.227e-14 -6.373e-03
7.555e-01 2.833e+00 0.000e+00 -5.381e-14 -6.297e-03
9.443e-01 2.833e+00 0.000e+00 -3.883e-14 -6.209e-03
1.133e+00 2.833e+00 0.000e+00 -3.726e-14 -6.115e-03
1.322e+00 2.833e+00 0.000e+00 -3.760e-14 -6.021e-03
1.511e+00 2.833e+00 0.000e+00 -4.253e-14 -5.931e-03
1.700e+00 2.833e+00 0.000e+00 -8.607e-15 -5.851e-03
1.889e+00 2.833e+00 0.000e+00 -1.160e-14 -5.786e-03
2.078e+00 2.833e+00 0.000e+00 -7.130e-15 -5.740e-03
2.266e+00 2.833e+00 0.000e+00 -2.624e-15 -5.716e-03
2.455e+00 2.833e+00 0.000e+00 3.629e-15 -5.716e-03
2.644e+00 2.833e+00 0.000e+00 7.277e-15 -5.740e-03
2.833e+00 2.833e+00 0.000e+00 4.825e-15 -5.786e-03
3.022e+00 2.833e+00 0.000e+00 -1.069e-14 -5.851e-03
3.211e+00 2.833e+00 0.000e+00 -2.907e-15 -5.931e-03
3.400e+00 2.833e+00 0.000e+00 -1.004e-14 -6.021e-03
3.589e+00 2.833e+00 0.000e+00 -3.361e-14 -6.115e-03
3.777e+00 2.833e+00 0.000e+00 -1.982e-14 -6.209e-03
3.966e+00 2.833e+00 0.000e+00 -4.470e-14 -6.297e-03
4.155e+00 2.833e+00 0.000e+00 -4.897e-14 -6.373e-03
4.344e+00 2.833e+00 0.000e+00 -5.210e-14 -6.432e-03
4.533e+00 2.833e+00 0.000e+00 -5.629e-14 -6.470e-03
0.000e+00 3.022e+00 0.000e+00 -6.825e-14 -6.483e-03
1.889e-01 3.022e+00 0.000e+00 -6.582e-14 -6.470e-03
3.777e-01 3.022e+00 0.000e+00 -6.467e-14 -6.432e-03
5.666e-01 3.022e+00 0.000e+00 -6.227e-14 -6.373e-03
7.555e-01 3.022e+00 0.000e+00 -5.381e-14 -6.297e-03
9.443e-01 3.022e+00 0.000e+00 -3.883e-14 -6.209e-03
1.133e+00 3.022e+00 0.000e+00 -3.726e-14 -6.115e-03
1.322e+00 3.022e+00 0.000e+00 -3.760e-14 -6.021e-03
1.511e+00 3.022e+00 0.000e+00 -4.253e-14 -5.931e-03
1.700e+00 3.022e+00 0.000e+00 -8.607e-15 -5.851e-03
1.889e+00 3.022e+00 0.000e+00 -1.160e-14 -5.786e-03
2.078e+00 3.022e+00 0.000e+00 -7.130e-15 -5.740e-03
2.266e+00 3.022e+00 0.000e+00 -2.624e-15 -5.716e-03
2.455e+00 3.022e+00 0.000e+00 3.629e-15 -5.716e-03
2.644e+00 3.022e+00 0.000e+00 7.277e-15 -5.740e-03
2.833e+00 3.022e+00 0.000e+00 4.825e-15 -5.786e-03
3.022e+00 3.022e+00 0.000e+00 -1.069e-14 -5.851e-03
3.211e+00 3.022e+00 0.000e+00 -2.907e-15 -5.931e-03
3.400e+00 3.022e+00 0.000e+00 -1.004e-14 -6.021e-03
3.589e+00 3.022e+00 0.000e+00 -3.361e-14 -6.115e-03
3.777e+00 3.022e+00 0.000e+00 -1.982e-14 -6.209e-03
3.966e+00 3.022e+00 0.000e+00 -4.470e-14 -6.297e-03
4.155e+00 3.022e+00 0.000e+00 -4.897e-14 -6.373e-03
4.344e+00 3.022e+00 0.000e+00 -5.210e-14 -6.432e-03
4.533e+00 3.022e+00 0.000e+00 -5.629e-14 -6.470e-03
0.000e+00 3.211e+00 0.000e+00 -6.825e-14 -6.483e-03
1.889e-01 3.211e+00 0.000e+00 -6.582e-14 -6.470e-03
3.777e-01 3.211e+00 0.000e+00 -6.467e-14 -6.432e-03
5.666e-01 3.211e+00 0.000e+00 -6.227e-14 -6.373e-03
7.555e-01 3.211e+00 0.000e+00 -5.381e-14 -6.297e-03
9.443e-01 3.211e+00 0.000e+00 -3.883e-14 -6.209e-03
1.133e+00 3.211e+00 0.000e+00 -3.726e-14 -6.115e-03
1.322e+00 3.211e+00 0.000e+00 -3.760e-14 -6.021e-03
1.511e+00 3.211e+00 0.000e+00 -4.253e-14 -5.931e-03
1.700e+00 3.211e+00 0.000e+00 -8.607e-15 -5.851e-03
1.889e+00 3.211e+00 0.000e+00 -1.160e-14 -5.786e-03
2.078e+00 3.211e+00 0.000e+00 -7.130e-15 -5.740e-03
2.266e+00 3.211e+00 0.000e+00 -2.624e-15 -5.716e-03
2.455e+00 3.211e+00 0.000e+00 3.629e-15 -5.716e-03
2.644e+00 3.211e+00 0.000e+00 7.277e-15 -5.740e-03
2.833e+00 3.211e+00 0.000e+00 4.825e-15 -5.786e-03
3.022e+00 3.211e+00 0.000e+00 -1.069e-14 -5.851e-03
3.211e+00 3.211e+00 0.000e+00 -2.907e-15 -5.931e-03
3.400e+00 3.211e+00 0.000e+00 -1.004e-14 -6.021e-03
3.589e+00 3.211e+00 0.000e+00 -3.361e-14 -6.115e-03
3.777e+00 3.211e+00 0.000e+00 -1.982e-14 -6.209e-03
3.966e+00 3.211e+00 0.000e+00 -4.470e-14 -6.297e-03
4.155e+00 3.211e+00 0.000e+00 -4.897e-14 -6.373e-03
4.344e+00 3.211e+00 0.000e+00 -5.210e-14 -6.432e-03
4.533e+00 3.211e+00 0.000e+00 -5.629e-14 -6.470e-03
0.000e+00 3.400e+00 0.000e+00 -6.825e-14 -6.483e-03
1.889e-01 3.400e+00 0.000e+00 -6.582e-14 -6.470e-03
3.777e-01 3.400e+00 0.000e+00 -6.467e-14 -6.432e-03
5.666e-01 3.400e+00 0.000e+00 -6.227e-14 -6.373e-03
7.555e-01 3.400e+00 0.000e+00 -5.381e-14 -6.297e-03
9.443e-01 3.400e+00 0.000e+00 -3.883e-14 -6.209e-03
1.133e+00 3.400e+00 0.000e+00 -3.726e-14 -6.115e-03
1.322e+00 3.400e+00 0.000e+00 -3.760e-14 -6.021e-03
1.511e+00 3.400e+00 0.000e+00 -4.253e-14 -5.931e-03
1.700e+00 3.400e+00 0.000e+00 -8.607e-15 -5.851e-03
1.889e+00 3.400e+00 0.000e+00 -1.160e-14 -5.786e-03
2.078e+00 3.400e+00 0.000e+00 -7.130e-15 -5.740e-03
2.266e+00 3.400e+00 0.000e+00 -2.624e-15 -5.716e-03
2.455e+00 3.400e+00 0.000e+00 3.629e-15 -5.716e-03
2.644e+00 3.400e+00 0.000e+00 7.277e-15 -5.740e-03
2.833e+00 3.400e+00 0.000e+00 4.825e-15 -5.786e-03
3.022e+00 3.400e+00 0.000e+00 -1.069e-14 -5.851e-03
3.211e+00 3.400e+00 0.000e+00 -2.907e-15 -5.931e-03
3.400e+00 3.400e+00 0.000e+00 -1.004e-14 -6.021e-03
3.589e+00 3.400e+00 0.000e+00 -3.361e-14 -6.115e-03
3.777e+00 3.400e+00 0.000e+00 -1.982e-14 -6.209e-03
3.966e+00 3.400e+00 0.000e+00 -4.470e-14 -6.297e-03
4.155e+00 3.400e+00 0.000e+00 -4.897e-14 -6.373e-03
4.344e+00 3.400e+00 0.000e+00 -5.210e-14 -6.432e-03
4.533e+00 3.400e+00 0.000e+00 -5.629e-14 -6.470e-03
0.000e+00 3.589e+00 0.000e+00 -6.825e-14 -6.483e-03
1.889e-01 3.589e+00 0.000e+00 -6.582e-14 -6.470e-03
3.777e-01 3.589e+00 0.000e+00 -6.467e-14 -6.432e-03
5.666e-01 3.589e+00 0.000e+00 -6.227e-14 -6.373e-03
7.555e-01 3.589e+00 0.000e+00 -5.381e-14 -6.297e-03
9.443e-01 3.589e+00 0.000e+00 -3.883e-14 -6.209e-03
1.133e+00 3.589e+00 0.000e+00 -3.726e-14 -6.115e-03
1.322e+00 3.589e+00 0.000e+00 -3.760e-14 -6.021e-03
1.511e+00 3.589e+00 0.000e+00 -4.253e-14 -5.931e-03
1.700e+00 3.589e+00 0.000e+00 -8.607e-15 -5.851e-03
1.889e+00 3.589e+00 0.000e+00 -1.160e-14 -5.786e-03
2.078e+00 3.589e+00 0.000e+00 -7.130e-15 -5.740e-03
2.266e+00 3.589e+00 0.000e+00 -2.624e-15 -5.716e-03
2.455e+00 3.589e+00 0.000e+00 3.629e-15 -5.716e-03
2.644e+00 3.589e+00 0.000e+00 7.277e-15 -5.740e-03
2.833e+00 3.589e+00 0.000e+00 4.825e-15 -5.786e-03
3.022e+00 3.589e+00 0.000e+00 -1.069e-14 -5.851e-03
3.211e+00 3.589e+00 0.000e+00 -2.907e-15 -5.931e-03
3.400e+00 3.589e+00 0.000e+00 -1.004e-14 -6.021e-03
3.589e+00 3.589e+00 0.000e+00 -3.361e-14 -6.115e-03
3.777e+00 3.589e+00 0.000e+00 -1.982e-14 -6.209e-03
3.966e+00 3.589e+00 0.000e+00 -4.470e-14 -6.297e-03
4.155e+00 3.589e+00 0.000e+00 -4.897e-14 -6.373e-03
4.344e+00 3.589e+00 0.000e+00 -5.210e-14 -6.432e-03
4.533e+00 3.589e+00 0.000e+00 -5.629e-14 -6.470e-03
0.000e+00 3.777e+00 0.000e+00 -6.825e-14 -6.483e-03
1.889e-01 3.777e+00 0.000e+00 -6.582e-14 -6.470e-03
3.777e-01 3.777e+00 0.000e+00 -6.467e-14 -6.432e-03
5.666e-01 3.777e+00 0.000e+00 -6.227e-14 -6.373e-03
7.555e-01 3.777e+00 0.000e+00 -5.381e-14 -6.297e-03
9.443e-01 3.777e+00 0.000e+00 -3.883e-14 -6.209e-03
1.133e+00 3.777e+00 0.000e+00 -3.726e-14 -6.115e-03
1.322e+00 3.777e+00 0.000e+00 -3.760e-14 -6.021e-03
1.511e+00 3.777e+00 0.000e+00 -4.253e-14 -5.931e-03
1.700e+00 3.777e+00 0.000e+00 -8.607e-15 -5.851e-03
1.889e+00 3.777e+00 0.000e+00 -1.160e-14 -5.786e-03
2.078e+00 3.777e+00 0.000e+00 -7.130e-15 -5.740e-03
2.266e+00 3.777e+00 0.000e+00 -2.624e-15 -5.716e-03
2.455e+00 3.777e+00 0.000e+00 3.629e-15 -5.716e-03
2.644e+00 3.777e+00 0.000e+00 7.277e-15 -5.740e-03
2.833e+00 3.777e+00 0.000e+00 4.825e-15 -5.786e-03
3.022e+00 3.777e+00 0.000e+00 -1.069e-14 -5.851e-03
3.211e+00 3.777e+00 0.000e+00 -2.907e-15 -5.931e-03
3.400e+00 3.777e+00 0.000e+00 -1.004e-14 -6.021e-03
3.589e+00 3.777e+00 0.000e+00 -3.361e-14 -6.115e-03
3.777e+00 3.777e+00 0.000e+00 -1.982e-14 -6.209e-03
3.966e+00 3.777e+00 0.000e+00 -4.470e-14 -6.297e-03
4.155e+00 3.777e+00 0.000e+00 -4.897e-14 -6.373e-03
4.344e+00 3.777e+00 0.000e+00 -5.210e-14 -6.432e-03
4.533e+00 3.777e+00 0.000e+00 -5.629e-14 -6.470e-03
0.000e+00 3.966e+00 0.000e+00 -6.825e-14 -6.483e-03
1.889e-01 3.966e+00 0.000e+00 -6.582e-14 -6.470e-03
3.777e-01 3.966e+00 0.000e+00 -6.467e-14 -6.432e-03
5.666e-01 3.966e+00 0.000e+00 -6.227e-14 -6.373e-03
7.555e-01 3.966e+00 0.000e+00 -5.381e-14 -6.297e-03
9.443e-01 3.966e+00 0.000e+00 -3.883e-14 -6.209e-03
1.133e+00 3.966e+00 0.000e+00 -3.726e-14 -6.115e-03
1.322e+00 3.966e+00 0.000e+00 -3.760e-14 -6.021e-03
1.511e+00 3.966e+00 0.000e+00 -4.253e-14 -5.931e-03
1.700e+00 3.966e+00 0.000e+00 -8.607e-15 -5.851e-03
1.889e+00 3.966e+00 0.000e+00 -1.160e-14 -5.786e-03
2.078e+00 3.966e+00 0.000e+00 -7.130e-15 -5.740e-03
2.266e+00 3.966e+00 0.000e+00 -2.624e-15 -5.716e-03
2.455e+00 3.966e+00 0.000e+00 3.629e-15 -5.716e-03
2.644e+00 3.966e+00 0.000e+00 7.277e-15 -5.740e-03
2.833e+00 3.966e+00 0.000e+00 4.825e-15 -5.786e-03
3.022e+00 3.966e+00 0.000e+00 -1.069e-14 -5.851e-03
3.211e+00 3.966e+00 0.000e+00 -2.907e-15 -5.931e-03
3.400e+00 3.966e+00 0.000e+00 -1.004e-14 -6.021e-03
3.589e+00 3.966e+00 0.000e+00 -3.361e-14 -6.115e-03
3.777e+00 3.966e+00 0.000e+00 -1.982e-14 -6.209e-03
3.966e+00 3.966e+00 0.000e+00 -4.470e-14 -6.297e-03
4.155e+00 3.966e+00 0.000e+00 -4.897e-14 -6.373e-03
4.344e+00 3.966e+00 0.000e+00 -5.210e-14 -6.432e-03
4.533e+00 3.966e+00 0.000e+00 -5.629e-14 -6.470e-03
0.000e+00 4.155e+00 0.000e+00 -6.825e-14 -6.483e-03
1.889e-01 4.155e+00 0.000e+00 -6.582e-14 -6.470e-03
3.777e-01 4.155e+00 0.000e+00 -6.467e-14 -6.432e-03
5.666e-01 4.155e+00 0.000e+00 -6.227e-14 -6.373e-03
7.555e-01 4.155e+00 0.000e+00 -5.381e-14 -6.297e-03
9.443e-01 4.155e+00 0.000e+00 -3.883e-14 -6.209e-03
1.133e+00 4.155e+00 0.000e+00 -3.726e-14 -6.115e-03
1.322e+00 4.155e+00 0.000e+00 -3.760e-14 -6.021e-03
1.511e+00 4.155e+00 0.000e+00 -4.253e-14 -5.931e-03
1.700e+00 4.155e+00 0.000e+00 -8.607e-15 -5.851e-03
1.889e+00 4.155e+00 0.000e+00 -1.160e-14 -5.786e-03
2.078e+00 4.155e+00 0.000e+00 -7.130e-15 -5.740e-03
2.266e+00 4.155e+00 0.000e+00 -2.624e-15 -5.716e-03
2.455e+00 4.155e+00 0.000e+00 3.629e-15 -5.716e-03
2.644e+00 4.155e+00 0.000e+00 7.277e-15 -5.740e-03
2.833e+00 4.155e+00 0.000e+00 4.825e-15 -5.786e-03
3.022e+00 4.155e+00 0.000e+00 -1.069e-14 -5.851e-03
3.211e+00 4.155e+00 0.000e+00 -2.907e-15 -5.931e-03
3.400e+00 4.155e+00 0.000e+00 -1.004e-14 -6.021e-03
3.589e+00 4.155e+00 0.000e+00 -3.361e-14 -6.115e-03
3.777e+00 4.155e+00 0.000e+00 -1.982e-14 -6.209e-03
3.966e+00 4.155e+00 0.000e+00 -4.470e-14 -6.297e-03
4.155e+00 4.155e+00 0.000e+00 -4.897e-14 -6.373e-03
4.344e+00 4.155e+00 0.000e+00 -5.210e-14 -6.432e-03
4.533e+00 4.155e+00 0.000e+00 -5.629e-14 -6.470e-03
0.000e+00 4.344e+00 0.000e+00 -6.825e-14 -6.483e-03